TitleMe                                                                 
SP        RB3LYP TD-FC                                                STO-3G              
Number of atoms                            I               15
Info1-9                                    I   N=           9
          32          26           0           0           0         111
           1         218        -501
Full Title                                 C   N=           1
TitleMe     
Route                                      C   N=           6
#P B3LYP/STO-3G NoSymm #P TD=(singlets,nstates=1) IOp(6/8=3)
 IOp(9/40=5)
Charge                                     I                0
Multiplicity                               I                1
Number of electrons                        I               74
Number of alpha electrons                  I               37
Number of beta electrons                   I               37
Number of basis functions                  I               55
Number of independent functions            I               55
Number of point charges in /Mol/           I                0
Number of translation vectors              I                0
Atomic numbers                             I   N=          15
           6           6           6           6           6           6
           1           1           1           1           1           6
           1           9          17
Nuclear charges                            R   N=          15
  6.00000000E+00  6.00000000E+00  6.00000000E+00  6.00000000E+00  6.00000000E+00
  6.00000000E+00  1.00000000E+00  1.00000000E+00  1.00000000E+00  1.00000000E+00
  1.00000000E+00  6.00000000E+00  1.00000000E+00  9.00000000E+00  1.70000000E+01
Current cartesian coordinates              R   N=          45
  1.37193671E+00 -2.22274045E+00 -5.38511474E-03  4.00840701E+00 -2.22274045E+00
 -5.38511474E-03  5.32656279E+00  5.95781703E-02 -5.38511474E-03  4.00818780E+00
  2.34332920E+00 -7.65089637E-03  1.37235056E+00  2.34318180E+00 -8.55607518E-03
  5.40757225E-02  6.00033587E-02 -6.67390796E-03  3.33042762E-01 -4.02235876E+00
 -4.53473799E-03  5.04682663E+00 -4.02272915E+00 -2.90012489E-03  5.04791511E+00
  4.14261870E+00 -7.76239021E-03  3.32770642E-01  4.14273208E+00 -1.03569842E-02
 -2.02387468E+00  6.03491786E-02 -7.01405866E-03  8.23674053E+00  5.97898763E-02
 -3.70730251E-03  8.91183942E+00  8.32523002E-02 -1.90954128E+00  9.08625789E+00
  2.12791357E+00  1.22488960E+00  9.34469457E+00 -2.67478119E+00  1.53131364E+00
Number of symbols in /Mol/                 I                0
Int Atom Types                             I   N=          15
           0           0           0           0           0           0
           0           0           0           0           0           0
           0           0           0
Force Field                                I                0
Atom Types                                 C   N=          15
                                                            
                                                            
                                                            
MM charges                                 R   N=          15
  0.00000000E+00  0.00000000E+00  0.00000000E+00  0.00000000E+00  0.00000000E+00
  0.00000000E+00  0.00000000E+00  0.00000000E+00  0.00000000E+00  0.00000000E+00
  0.00000000E+00  0.00000000E+00  0.00000000E+00  0.00000000E+00  0.00000000E+00
Integer atomic weights                     I   N=          15
          12          12          12          12          12          12
           1           1           1           1           1          12
           1          19          35
Real atomic weights                        R   N=          15
  1.20000000E+01  1.20000000E+01  1.20000000E+01  1.20000000E+01  1.20000000E+01
  1.20000000E+01  1.00782504E+00  1.00782504E+00  1.00782504E+00  1.00782504E+00
  1.00782504E+00  1.20000000E+01  1.00782504E+00  1.89984032E+01  3.49688527E+01
Atom fragment info                         I   N=          15
           0           0           0           0           0           0
           0           0           0           0           0           0
           0           0           0
Atom residue num                           I   N=          15
           0           0           0           0           0           0
           0           0           0           0           0           0
           0           0           0
Nuclear spins                              I   N=          15
           0           0           0           0           0           0
           1           1           1           1           1           0
           1           1           3
Nuclear ZEff                               R   N=          15
 -3.60000000E+00 -3.60000000E+00 -3.60000000E+00 -3.60000000E+00 -3.60000000E+00
 -3.60000000E+00 -1.00000000E+00 -1.00000000E+00 -1.00000000E+00 -1.00000000E+00
 -1.00000000E+00 -3.60000000E+00 -1.00000000E+00 -6.75000000E+00 -1.42400000E+01
Nuclear ZNuc                               R   N=          15
  6.00000000E+00  6.00000000E+00  6.00000000E+00  6.00000000E+00  6.00000000E+00
  6.00000000E+00  1.00000000E+00  1.00000000E+00  1.00000000E+00  1.00000000E+00
  1.00000000E+00  6.00000000E+00  1.00000000E+00  9.00000000E+00  1.70000000E+01
Nuclear QMom                               R   N=          15
  0.00000000E+00  0.00000000E+00  0.00000000E+00  0.00000000E+00  0.00000000E+00
  0.00000000E+00  0.00000000E+00  0.00000000E+00  0.00000000E+00  0.00000000E+00
  0.00000000E+00  0.00000000E+00  0.00000000E+00  0.00000000E+00 -8.16500000E+00
Nuclear GFac                               R   N=          15
  0.00000000E+00  0.00000000E+00  0.00000000E+00  0.00000000E+00  0.00000000E+00
  0.00000000E+00  2.79284600E+00  2.79284600E+00  2.79284600E+00  2.79284600E+00
  2.79284600E+00  0.00000000E+00  2.79284600E+00  2.62886700E+00  8.21874000E-01
MicOpt                                     I   N=          15
          -1          -1          -1          -1          -1          -1
          -1          -1          -1          -1          -1          -1
          -1          -1          -1
Number of residues                         I                0
Number of secondary structures             I                0
Number of contracted shells                I               25
Number of primitive shells                 I               75
Pure/Cartesian d shells                    I                0
Pure/Cartesian f shells                    I                0
Highest angular momentum                   I                1
Largest degree of contraction              I                3
Shell types                                I   N=          25
           0          -1           0          -1           0          -1
           0          -1           0          -1           0          -1
           0           0           0           0           0           0
          -1           0           0          -1           0          -1
          -1
Number of primitives per shell             I   N=          25
           3           3           3           3           3           3
           3           3           3           3           3           3
           3           3           3           3           3           3
           3           3           3           3           3           3
           3
Shell to atom map                          I   N=          25
           1           1           2           2           3           3
           4           4           5           5           6           6
           7           8           9          10          11          12
          12          13          14          14          15          15
          15
Primitive exponents                        R   N=          75
  7.16168373E+01  1.30450963E+01  3.53051216E+00  2.94124936E+00  6.83483096E-01
  2.22289916E-01  7.16168373E+01  1.30450963E+01  3.53051216E+00  2.94124936E+00
  6.83483096E-01  2.22289916E-01  7.16168373E+01  1.30450963E+01  3.53051216E+00
  2.94124936E+00  6.83483096E-01  2.22289916E-01  7.16168373E+01  1.30450963E+01
  3.53051216E+00  2.94124936E+00  6.83483096E-01  2.22289916E-01  7.16168373E+01
  1.30450963E+01  3.53051216E+00  2.94124936E+00  6.83483096E-01  2.22289916E-01
  7.16168373E+01  1.30450963E+01  3.53051216E+00  2.94124936E+00  6.83483096E-01
  2.22289916E-01  3.42525091E+00  6.23913730E-01  1.68855404E-01  3.42525091E+00
  6.23913730E-01  1.68855404E-01  3.42525091E+00  6.23913730E-01  1.68855404E-01
  3.42525091E+00  6.23913730E-01  1.68855404E-01  3.42525091E+00  6.23913730E-01
  1.68855404E-01  7.16168373E+01  1.30450963E+01  3.53051216E+00  2.94124936E+00
  6.83483096E-01  2.22289916E-01  3.42525091E+00  6.23913730E-01  1.68855404E-01
  1.66679134E+02  3.03608123E+01  8.21682067E+00  6.46480325E+00  1.50228124E+00
  4.88588486E-01  6.01345614E+02  1.09535854E+02  2.96446769E+01  3.89604189E+01
  9.05356348E+00  2.94449983E+00  2.12938650E+00  5.94093427E-01  2.32524141E-01
Contraction coefficients                   R   N=          75
  1.54328967E-01  5.35328142E-01  4.44634542E-01 -9.99672292E-02  3.99512826E-01
  7.00115469E-01  1.54328967E-01  5.35328142E-01  4.44634542E-01 -9.99672292E-02
  3.99512826E-01  7.00115469E-01  1.54328967E-01  5.35328142E-01  4.44634542E-01
 -9.99672292E-02  3.99512826E-01  7.00115469E-01  1.54328967E-01  5.35328142E-01
  4.44634542E-01 -9.99672292E-02  3.99512826E-01  7.00115469E-01  1.54328967E-01
  5.35328142E-01  4.44634542E-01 -9.99672292E-02  3.99512826E-01  7.00115469E-01
  1.54328967E-01  5.35328142E-01  4.44634542E-01 -9.99672292E-02  3.99512826E-01
  7.00115469E-01  1.54328967E-01  5.35328142E-01  4.44634542E-01  1.54328967E-01
  5.35328142E-01  4.44634542E-01  1.54328967E-01  5.35328142E-01  4.44634542E-01
  1.54328967E-01  5.35328142E-01  4.44634542E-01  1.54328967E-01  5.35328142E-01
  4.44634542E-01  1.54328967E-01  5.35328142E-01  4.44634542E-01 -9.99672292E-02
  3.99512826E-01  7.00115469E-01  1.54328967E-01  5.35328142E-01  4.44634542E-01
  1.54328967E-01  5.35328142E-01  4.44634542E-01 -9.99672292E-02  3.99512826E-01
  7.00115469E-01  1.54328967E-01  5.35328142E-01  4.44634542E-01 -9.99672292E-02
  3.99512826E-01  7.00115469E-01 -2.19620369E-01  2.25595434E-01  9.00398426E-01
P(S=P) Contraction coefficients            R   N=          75
  0.00000000E+00  0.00000000E+00  0.00000000E+00  1.55916275E-01  6.07683719E-01
  3.91957393E-01  0.00000000E+00  0.00000000E+00  0.00000000E+00  1.55916275E-01
  6.07683719E-01  3.91957393E-01  0.00000000E+00  0.00000000E+00  0.00000000E+00
  1.55916275E-01  6.07683719E-01  3.91957393E-01  0.00000000E+00  0.00000000E+00
  0.00000000E+00  1.55916275E-01  6.07683719E-01  3.91957393E-01  0.00000000E+00
  0.00000000E+00  0.00000000E+00  1.55916275E-01  6.07683719E-01  3.91957393E-01
  0.00000000E+00  0.00000000E+00  0.00000000E+00  1.55916275E-01  6.07683719E-01
  3.91957393E-01  0.00000000E+00  0.00000000E+00  0.00000000E+00  0.00000000E+00
  0.00000000E+00  0.00000000E+00  0.00000000E+00  0.00000000E+00  0.00000000E+00
  0.00000000E+00  0.00000000E+00  0.00000000E+00  0.00000000E+00  0.00000000E+00
  0.00000000E+00  0.00000000E+00  0.00000000E+00  0.00000000E+00  1.55916275E-01
  6.07683719E-01  3.91957393E-01  0.00000000E+00  0.00000000E+00  0.00000000E+00
  0.00000000E+00  0.00000000E+00  0.00000000E+00  1.55916275E-01  6.07683719E-01
  3.91957393E-01  0.00000000E+00  0.00000000E+00  0.00000000E+00  1.55916275E-01
  6.07683719E-01  3.91957393E-01  1.05876043E-02  5.95167005E-01  4.62001012E-01
Coordinates of each shell                  R   N=          75
  1.37193671E+00 -2.22274045E+00 -5.38511474E-03  1.37193671E+00 -2.22274045E+00
 -5.38511474E-03  4.00840701E+00 -2.22274045E+00 -5.38511474E-03  4.00840701E+00
 -2.22274045E+00 -5.38511474E-03  5.32656279E+00  5.95781703E-02 -5.38511474E-03
  5.32656279E+00  5.95781703E-02 -5.38511474E-03  4.00818780E+00  2.34332920E+00
 -7.65089637E-03  4.00818780E+00  2.34332920E+00 -7.65089637E-03  1.37235056E+00
  2.34318180E+00 -8.55607518E-03  1.37235056E+00  2.34318180E+00 -8.55607518E-03
  5.40757225E-02  6.00033587E-02 -6.67390796E-03  5.40757225E-02  6.00033587E-02
 -6.67390796E-03  3.33042762E-01 -4.02235876E+00 -4.53473799E-03  5.04682663E+00
 -4.02272915E+00 -2.90012489E-03  5.04791511E+00  4.14261870E+00 -7.76239021E-03
  3.32770642E-01  4.14273208E+00 -1.03569842E-02 -2.02387468E+00  6.03491786E-02
 -7.01405866E-03  8.23674053E+00  5.97898763E-02 -3.70730251E-03  8.23674053E+00
  5.97898763E-02 -3.70730251E-03  8.91183942E+00  8.32523002E-02 -1.90954128E+00
  9.08625789E+00  2.12791357E+00  1.22488960E+00  9.08625789E+00  2.12791357E+00
  1.22488960E+00  9.34469457E+00 -2.67478119E+00  1.53131364E+00  9.34469457E+00
 -2.67478119E+00  1.53131364E+00  9.34469457E+00 -2.67478119E+00  1.53131364E+00
Num ILSW                                   I              100
ILSW                                       I   N=         100
           0           0           0           0           2           0
           0           0           0           0         402          -1
           5           0           0           0           0           0
           0           0           0           0           0           0
           1           1           0           0           0           0
           0           0      100000           0          -1           0
           0           0           0           0           0           0
           0           0           0           1           0           0
           0 -2000000000           1           0           0           0
           0           0           4          52           0           0
           0           0           5           0           0           0
           0           0           0          15           0           1
           0           0           0           0           0           0
           0           0           0           0           0           0
           0           0           0           0           0           0
           0           0           0           0           0           0
           0           0           0           0
Num RLSW                                   I               52
RLSW                                       R   N=          52
  8.00000000E-01  7.20000000E-01  1.00000000E+00  8.10000000E-01  2.00000000E-01
  0.00000000E+00  0.00000000E+00  1.00000000E+00  0.00000000E+00  0.00000000E+00
  0.00000000E+00  0.00000000E+00  1.00000000E+00  0.00000000E+00  0.00000000E+00
  0.00000000E+00  0.00000000E+00  1.00000000E+00  0.00000000E+00  0.00000000E+00
  0.00000000E+00  0.00000000E+00  1.00000000E+00  0.00000000E+00  0.00000000E+00
  0.00000000E+00  0.00000000E+00  1.00000000E+00  0.00000000E+00  0.00000000E+00
  0.00000000E+00  0.00000000E+00  1.00000000E+00  0.00000000E+00  0.00000000E+00
  0.00000000E+00  0.00000000E+00  0.00000000E+00  1.00000000E+00  1.00000000E+00
  0.00000000E+00  1.00000000E+00  0.00000000E+00  0.00000000E+00  0.00000000E+00
  0.00000000E+00  0.00000000E+00  0.00000000E+00  0.00000000E+00  0.00000000E+00
  0.00000000E+00  0.00000000E+00
MxBond                                     I                4
NBond                                      I   N=          15
           3           3           3           3           3           3
           1           1           1           1           1           4
           1           1           1
IBond                                      I   N=          60
           2           6           7           0           1           3
           8           0           2           4          12           0
           3           5           9           0           4           6
          10           0           1           5          11           0
           1           0           0           0           2           0
           0           0           4           0           0           0
           5           0           0           0           6           0
           0           0           3          13          14          15
          12           0           0           0          12           0
           0           0          12           0           0           0
RBond                                      R   N=          60
  1.50000000E+00  1.50000000E+00  1.00000000E+00  0.00000000E+00  1.50000000E+00
  1.50000000E+00  1.00000000E+00  0.00000000E+00  1.50000000E+00  1.50000000E+00
  1.00000000E+00  0.00000000E+00  1.50000000E+00  1.50000000E+00  1.00000000E+00
  0.00000000E+00  1.50000000E+00  1.50000000E+00  1.00000000E+00  0.00000000E+00
  1.50000000E+00  1.50000000E+00  1.00000000E+00  0.00000000E+00  1.00000000E+00
  0.00000000E+00  0.00000000E+00  0.00000000E+00  1.00000000E+00  0.00000000E+00
  0.00000000E+00  0.00000000E+00  1.00000000E+00  0.00000000E+00  0.00000000E+00
  0.00000000E+00  1.00000000E+00  0.00000000E+00  0.00000000E+00  0.00000000E+00
  1.00000000E+00  0.00000000E+00  0.00000000E+00  0.00000000E+00  1.00000000E+00
  1.00000000E+00  1.00000000E+00  1.00000000E+00  1.00000000E+00  0.00000000E+00
  0.00000000E+00  0.00000000E+00  1.00000000E+00  0.00000000E+00  0.00000000E+00
  0.00000000E+00  1.00000000E+00  0.00000000E+00  0.00000000E+00  0.00000000E+00
Virial Ratio                               R      2.018334687934213E+00
SCF Energy                                 R     -8.206029500378006E+02
CIS Energy                                 R     -8.203703693566104E+02
Total Energy                               R     -8.203703693566104E+02
Post-SCF wavefunction norm                 R      1.000000000000000E+00
RMS Density                                R      2.395073822377290E-09
Job Status                                 I                1
Nuclear derivative order                   I                0
External E-field                           R   N=          35
  0.00000000E+00  0.00000000E+00  0.00000000E+00  0.00000000E+00  0.00000000E+00
  0.00000000E+00  0.00000000E+00  0.00000000E+00  0.00000000E+00  0.00000000E+00
  0.00000000E+00  0.00000000E+00  0.00000000E+00  0.00000000E+00  0.00000000E+00
  0.00000000E+00  0.00000000E+00  0.00000000E+00  0.00000000E+00  0.00000000E+00
  0.00000000E+00  0.00000000E+00  0.00000000E+00  0.00000000E+00  0.00000000E+00
  0.00000000E+00  0.00000000E+00  0.00000000E+00  0.00000000E+00  0.00000000E+00
  0.00000000E+00  0.00000000E+00  0.00000000E+00  0.00000000E+00  0.00000000E+00
IOpCl                                      I                0
IROHF                                      I                0
Alpha Orbital Energies                     R   N=          55
 -1.00443595E+02 -2.44270972E+01 -1.01556258E+01 -1.00308396E+01 -1.00207421E+01
 -1.00184340E+01 -1.00174213E+01 -1.00168633E+01 -1.00162194E+01 -9.24383323E+00
 -7.02377177E+00 -7.00818031E+00 -7.00766288E+00 -1.15330512E+00 -8.33060023E-01
 -8.00403580E-01 -7.20032276E-01 -7.11549766E-01 -6.25191756E-01 -5.73403432E-01
 -5.53769644E-01 -4.95702126E-01 -4.59280187E-01 -4.27984183E-01 -4.25928994E-01
 -4.02337662E-01 -3.89481045E-01 -3.85277575E-01 -3.26787717E-01 -3.20667500E-01
 -3.08803736E-01 -2.53962057E-01 -2.50737260E-01 -2.32708359E-01 -2.19572132E-01
 -2.07016818E-01 -2.04240914E-01  7.27141344E-02  8.02032011E-02  1.61655475E-01
  2.40573597E-01  3.08628233E-01  3.19435161E-01  3.63929024E-01  3.86646329E-01
  4.29412504E-01  4.37863850E-01  4.52597806E-01  4.66269196E-01  5.64979113E-01
  5.78194507E-01  5.92258993E-01  6.03517850E-01  7.54227552E-01  7.99702136E-01
Alpha MO coefficients                      R   N=        3025
 -8.67632564E-07  1.19902286E-05  8.36063579E-06 -1.31927923E-06 -3.08075536E-06
  3.07173979E-08 -2.37893666E-05  2.35733331E-05  2.85753572E-05  1.50318982E-05
 -1.62878257E-06 -1.87452568E-05  2.14887337E-06 -5.19664440E-07  2.33770613E-06
 -6.82231065E-07  5.83577167E-06  6.10826967E-06 -3.36194471E-06 -3.30191264E-06
 -8.65000158E-08  1.33047761E-06  7.05911789E-07  1.55950298E-07  4.50371854E-07
  4.57797034E-08 -3.60970701E-07 -9.68955656E-07 -2.66563749E-07  2.30098935E-07
 -2.22982551E-06  9.16107979E-05  1.84417321E-06 -1.36705124E-07 -1.33584791E-07
 -6.14127103E-05  4.31950179E-04  1.36039129E-04 -3.12110385E-04  1.91482551E-04
  2.76847841E-06  2.41416163E-06 -2.66154575E-05  1.50813644E-06  2.35481307E-05
  2.40454224E-06  9.94359302E-01  1.61547486E-02 -3.93060190E-05  9.23771286E-05
 -5.38019148E-05 -2.02496974E-03  9.44711917E-05 -2.16490995E-04  1.24095693E-04
  1.36467954E-06 -2.54543293E-05 -1.68779485E-05 -1.84546005E-06 -3.59620606E-06
  3.60426326E-06  3.35496868E-05 -6.99072801E-05  3.90058153E-05  4.67469823E-06
 -3.11227274E-05  3.89287594E-04  2.67564410E-04  3.39352936E-04  1.78634197E-04
 -4.48005101E-06  8.50964483E-06 -5.99634034E-05  1.38046776E-04 -6.08932227E-05
  1.97866782E-06 -2.40540902E-05 -1.77585376E-05 -1.45787613E-05  9.44840959E-06
 -2.89355110E-07  4.09670464E-07  5.11851429E-06 -2.61663191E-06 -1.30222163E-06
  1.42446142E-06 -2.37047780E-05 -2.24142264E-04  7.61519065E-06  1.19657689E-06
  6.92410899E-04 -4.93364534E-03 -1.62931741E-03 -4.07425143E-03 -2.40717078E-03
  3.77430908E-04  9.94246576E-01  2.44161769E-02 -1.04093982E-03 -2.52581276E-03
 -1.51287284E-03  6.71267989E-06 -1.37394550E-05 -5.78089724E-06 -5.37104000E-05
 -1.15096010E-05  2.50655135E-04  3.00713750E-05  3.83590265E-04  6.21600806E-05
 -4.95591966E-05 -4.89064217E-05 -3.82914977E-05 -5.56106167E-05 -7.54825892E-06
 -4.96870561E-05  2.22051515E-04  1.71376987E-04 -4.97969157E-05  4.41028460E-05
 -3.28517534E-03 -7.47358476E-03 -5.78988630E-03 -1.31091326E-04 -9.24051761E-05
 -9.74975312E-05  3.28605611E-04  8.21614701E-05  6.74093462E-05 -1.19223615E-05
 -5.95180233E-05 -9.34350791E-05 -6.91239542E-05  5.83898640E-05  2.35846929E-06
 -2.31275197E-05  8.97023375E-06 -2.90146991E-05  1.22575430E-07  9.94346226E-07
 -1.31796740E-05 -1.05397449E-04 -3.45845636E-04 -8.17505468E-06 -1.27435072E-05
  9.90612231E-01  4.22520217E-02 -2.40231664E-04 -2.25194868E-04 -1.02849372E-03
 -9.63684995E-03  7.09068599E-04 -6.18672455E-03  1.06417029E-03  2.65832131E-03
  1.58572287E-03  1.75301999E-04 -5.86480641E-04 -2.03681284E-04  5.45391962E-04
 -2.85386698E-04 -5.77623692E-03  1.89029297E-03 -4.96431995E-03  2.63230900E-03
 -7.10747380E-04  5.98855467E-04  2.59373734E-04  6.50060542E-05 -8.54487232E-07
 -2.25816452E-02 -1.06319796E-02 -3.01404018E-03 -5.60981728E-03  4.01660469E-06
  9.89650798E-01  4.47445281E-02 -1.82556027E-03  7.78217363E-05 -9.15657090E-06
 -3.25940155E-02 -1.10804119E-02 -3.01114886E-03  5.63514688E-03 -5.35165907E-06
 -5.70105411E-04  6.98872863E-04  3.21185420E-04 -6.64235535E-05  2.14718520E-07
 -2.36901685E-03 -2.66071326E-04 -2.56235582E-04 -1.77116442E-06 -7.49598911E-08
 -9.55184719E-05  3.56838999E-04  4.37034893E-04 -9.86904703E-05 -4.05919998E-05
  4.79121692E-03 -7.08885552E-03  5.67247324E-03 -1.29321512E-04 -1.51838743E-04
 -2.15042945E-04 -2.25917499E-05  3.07954614E-04 -1.10138723E-04 -1.47041578E-04
 -1.14386564E-04  2.10395016E-05 -3.81782870E-05 -2.56911405E-05  4.45774256E-06
  5.64219163E-06 -1.25002710E-05  1.29413890E-04  2.18933281E-05 -7.00101552E-05
 -8.46787312E-03 -5.94944014E-04 -6.52031741E-05 -2.88147563E-04 -7.45204841E-08
 -5.49633708E-03 -9.82269746E-05 -1.51598646E-04 -4.89073010E-05  1.22239177E-06
  3.34458937E-02 -8.00833859E-03  3.20051099E-03 -5.41481206E-03  6.36139992E-06
  9.79827513E-01  4.50793806E-02 -1.77789715E-03 -1.32095807E-03 -3.15935889E-06
 -1.39895611E-01 -1.57938344E-02 -6.35112028E-03  4.17293144E-04 -2.09122192E-06
  8.15739345E-03  2.15886463E-03  5.89740914E-04  7.90323586E-04 -7.66517736E-07
  2.05846466E-05 -3.05737094E-05 -8.88835248E-03  1.42933868E-03 -1.99890458E-04
  2.69681685E-04 -4.53746960E-06  7.06617445E-05 -1.47553212E-05 -5.85924692E-06
 -2.56241756E-05 -5.82638497E-06  6.31955817E-05  7.03154126E-06  9.15902624E-06
 -1.50644540E-05  3.51708790E-06 -9.82493744E-06 -6.15546811E-06  1.81482913E-06
 -4.60834928E-06 -5.87523251E-05  5.29495720E-05 -2.05667845E-05  3.87919760E-05
  5.23814401E-02  5.67979707E-03 -7.08549785E-04  1.76932606E-03 -1.18570328E-06
 -2.42196463E-02 -1.83092082E-03  4.95642202E-04 -2.69735918E-04  6.29556144E-07
  3.99928739E-03 -5.05086038E-04  2.08913224E-04 -8.13280867E-04  9.39279272E-07
  1.37600323E-01 -3.02411085E-03  5.91491340E-03 -4.18605094E-06  1.54774895E-06
  9.36329708E-01  4.35271694E-02 -9.32883542E-04 -2.97431900E-03  2.48460174E-06
 -2.86005679E-01 -2.23419160E-02 -3.78320281E-03 -4.80965212E-03  4.98892241E-06
 -6.30768339E-04  1.79494392E-04 -1.05707313E-03 -8.49789684E-03  2.74328381E-03
  1.07932383E-04 -7.60030245E-05  5.82833167E-05 -5.10427394E-05  1.49244617E-06
  1.24962702E-06  9.83525181E-07  4.90321354E-06  1.63400941E-05 -1.32730128E-05
 -3.56651284E-06  6.30730106E-07 -1.98852047E-06 -7.76176890E-07  2.75493461E-07
 -1.31541401E-06 -1.46960896E-05  7.23930238E-06 -3.04431148E-06  1.09494776E-05
 -6.03347135E-01 -3.56909750E-02  5.30541077E-04 -4.95072193E-03  4.62282755E-06
  1.79454780E-01  1.40712878E-02 -4.07521402E-03  3.19302429E-04 -2.03739360E-06
  6.72849134E-03 -1.94156417E-03  8.87342016E-04  9.13026222E-04  2.76688451E-07
  2.62861167E-02 -9.24790938E-04  1.44505379E-03 -1.43397235E-04  5.17719660E-07
  2.55653443E-01  4.03789822E-03  2.24500017E-03  3.78664302E-03 -2.89063759E-06
  7.19668774E-01  3.57739021E-02  2.40674991E-03 -4.69966176E-03  4.45199746E-07
  5.58162249E-03 -1.81922505E-03 -2.42170371E-04 -2.13806992E-03 -6.59268484E-03
  5.00106466E-05 -6.17548818E-06  2.34597462E-05 -4.72566162E-05  1.52869191E-06
 -4.31261780E-06  8.74972189E-07 -2.91373222E-06  8.66330742E-06 -4.90890909E-06
  1.25488126E-07  3.34800136E-07 -2.32847464E-08 -8.69577406E-07  3.92871958E-06
  1.32863210E-06  1.56676115E-05 -5.87406513E-07 -3.20037492E-05 -1.14012325E-05
  6.01256554E-01  2.63196438E-02  5.55700181E-03 -2.30144571E-03 -4.93392502E-07
 -5.09504233E-01 -2.84180636E-02  4.24853998E-03 -8.40723145E-04  5.14841216E-06
 -9.82961234E-03  4.53574408E-03 -1.54640658E-03 -2.92644100E-03 -4.23707125E-07
  1.64708837E-02 -4.86936287E-04  8.53552143E-04  1.07114335E-04  1.65517653E-07
  1.30265664E-01  3.42445485E-04  1.85313895E-03  2.92471907E-03 -2.30123857E-06
  5.85759758E-01  1.90758200E-02 -1.49008929E-03  2.61392775E-03 -3.18769451E-06
 -5.43842023E-03  4.63470421E-03 -1.78265401E-04 -1.10103956E-03 -5.12611847E-03
 -5.11163696E-06 -1.57121497E-04  6.53687672E-05  3.80088480E-05 -1.13417801E-05
  1.74417460E-05 -3.66721386E-06  2.72289181E-05 -1.62253609E-05 -3.91665240E-06
 -9.75739903E-06 -3.80897077E-06  7.25057111E-06  8.57325912E-06 -9.08041544E-06
 -1.72730363E-06 -8.56047703E-06 -4.87338299E-05  7.47103280E-05  1.61604908E-05
  5.02868920E-01  1.27294014E-02 -4.28083559E-03 -4.99275366E-04  3.38007695E-07
  8.29630442E-01  3.23246245E-02  2.46019146E-03  1.08802058E-03 -7.13339206E-06
  2.14480883E-02 -7.06761753E-03  2.77544308E-03  4.43825248E-03  1.05755442E-06
  1.40996146E-02  2.43575526E-04  3.10864019E-04  1.12639093E-04 -3.30187171E-07
  5.11749892E-02  3.44802743E-04  4.40809520E-04  1.15288174E-03 -6.62110397E-07
  1.95755106E-01  3.76470281E-03 -1.44712831E-03  2.40636702E-03 -1.87361286E-06
 -4.38571341E-03 -7.42559916E-03 -2.54006139E-04 -5.37400908E-04 -1.76476904E-03
  2.02077367E-04  2.95822489E-05  7.69590193E-05 -1.40257998E-05  3.06440882E-05
 -1.79596247E-05  6.88013921E-06 -4.63970409E-05  2.62954734E-05  7.25626229E-06
  1.88420146E-05  1.01124664E-05 -2.12715435E-05 -2.12172471E-05  1.38956960E-05
 -3.32223625E-07 -2.99195977E-05  1.36462431E-04 -1.14115448E-04 -2.19572358E-06
  2.83552532E-05 -2.58628098E-04 -1.74845952E-04  1.49840951E-05  6.72789798E-05
  6.08706376E-05  5.07343125E-04 -5.67760429E-04 -5.76831814E-04 -3.42825680E-04
  1.59118299E-04  3.16368462E-04 -1.26992491E-04  1.66390265E-04 -1.38885774E-04
  2.90430562E-05 -1.56990914E-04 -1.23585973E-04  9.08939888E-05  7.94052298E-05
  2.23766618E-06 -2.08129061E-05 -1.10390868E-05 -3.68305759E-06 -9.06750423E-06
 -1.90473617E-06  9.54267113E-06  1.78832707E-05  2.88074144E-06 -3.89909571E-06
  4.55474707E-05 -2.10163116E-03 -3.65395570E-05  2.23978266E-06  1.62496305E-06
  2.31856224E-03 -9.73036812E-03 -2.93978834E-03  6.70356900E-03 -4.11669985E-03
 -1.83553212E-04 -4.44308760E-05  5.33771704E-04 -7.04335811E-05 -3.82339151E-04
 -1.08423747E-04 -3.76642057E-01  1.05112490E+00 -4.02236209E-03  9.63675943E-03
 -5.74094358E-03  5.33516666E-02 -2.37439235E-03  5.41214515E-03 -3.13362964E-03
  1.01293339E-05 -1.46511361E-04 -1.04312935E-04 -9.53197931E-06  3.21936692E-05
  8.17011071E-05 -1.55536241E-04 -5.43285570E-04 -3.95168520E-05 -1.68663667E-04
  7.26359174E-05  3.80619481E-04  8.01102387E-05  6.94193449E-05 -6.79651591E-05
  1.68032263E-05 -1.17077934E-04 -1.28334891E-04  5.90182527E-05  7.06698223E-05
  1.88834877E-06 -2.42208631E-05 -1.65763435E-05 -1.30227880E-06 -9.83167942E-06
 -1.06801667E-07  5.43584986E-06  8.05752521E-06  1.74037941E-07 -1.38649560E-06
  6.47666503E-06 -2.86330661E-04 -4.41206689E-05  1.33934841E-06  4.41236026E-07
  1.74584852E-03 -1.29662365E-02 -3.62501929E-03  8.53839065E-03 -4.99137855E-03
  1.53820980E-04 -4.91247153E-05  6.02722424E-04 -5.73435660E-05 -4.37198599E-04
 -9.05372365E-05  5.30106780E-03 -1.49823225E-02 -3.27969141E-01  8.08277296E-01
 -4.61193651E-01  6.19240727E-03 -1.78443660E-02  4.38943328E-02 -2.49931733E-02
 -2.04161824E-05  2.94789574E-04  1.95585313E-04 -1.37420011E-05 -5.16866391E-05
 -1.81521293E-05 -7.01340218E-04  6.22024034E-04  6.82090945E-04  2.50032147E-04
 -4.32432072E-05 -4.52409129E-04  5.76026652E-05 -4.03881351E-04  3.87080396E-04
 -1.94159676E-05  2.06583544E-04  1.09940524E-04 -1.22143835E-04 -4.80632679E-05
 -2.97717450E-07  8.27655115E-06  1.62255516E-06  8.82055994E-06  1.46831708E-07
  1.49763687E-06 -1.15981581E-05 -2.06721657E-05 -1.67088820E-06  2.29432996E-06