 Entering Gaussian System, Link 0=g16
 Initial command:
 /software/gaussian/g16-c01/avx2/g16/l1.exe "/gpfs/fs2/scratch/bweight/software/Gaussian_Scripts/Circular_Dichroism/example/Gau-17712.inp" -scrdir="/gpfs/fs2/scratch/bweight/software/Gaussian_Scripts/Circular_Dichroism/example/"
 Entering Link 1 = /software/gaussian/g16-c01/avx2/g16/l1.exe PID=     17714.
  
 Copyright (c) 1988-2019, Gaussian, Inc.  All Rights Reserved.
  
 This is part of the Gaussian(R) 16 program.  It is based on
 the Gaussian(R) 09 system (copyright 2009, Gaussian, Inc.),
 the Gaussian(R) 03 system (copyright 2003, Gaussian, Inc.),
 the Gaussian(R) 98 system (copyright 1998, Gaussian, Inc.),
 the Gaussian(R) 94 system (copyright 1995, Gaussian, Inc.),
 the Gaussian 92(TM) system (copyright 1992, Gaussian, Inc.),
 the Gaussian 90(TM) system (copyright 1990, Gaussian, Inc.),
 the Gaussian 88(TM) system (copyright 1988, Gaussian, Inc.),
 the Gaussian 86(TM) system (copyright 1986, Carnegie Mellon
 University), and the Gaussian 82(TM) system (copyright 1983,
 Carnegie Mellon University). Gaussian is a federally registered
 trademark of Gaussian, Inc.
  
 This software contains proprietary and confidential information,
 including trade secrets, belonging to Gaussian, Inc.
  
 This software is provided under written license and may be
 used, copied, transmitted, or stored only in accord with that
 written license.
  
 The following legend is applicable only to US Government
 contracts under FAR:
  
                    RESTRICTED RIGHTS LEGEND
  
 Use, reproduction and disclosure by the US Government is
 subject to restrictions as set forth in subparagraphs (a)
 and (c) of the Commercial Computer Software - Restricted
 Rights clause in FAR 52.227-19.
  
 Gaussian, Inc.
 340 Quinnipiac St., Bldg. 40, Wallingford CT 06492
  
  
 ---------------------------------------------------------------
 Warning -- This program may not be used in any manner that
 competes with the business of Gaussian, Inc. or will provide
 assistance to any competitor of Gaussian, Inc.  The licensee
 of this program is prohibited from giving any competitor of
 Gaussian, Inc. access to this program.  By using this program,
 the user acknowledges that Gaussian, Inc. is engaged in the
 business of creating and licensing software in the field of
 computational chemistry and represents and warrants to the
 licensee that it is not a competitor of Gaussian, Inc. and that
 it will not use this program in any manner prohibited above.
 ---------------------------------------------------------------
  

 Cite this work as:
 Gaussian 16, Revision C.01,
 M. J. Frisch, G. W. Trucks, H. B. Schlegel, G. E. Scuseria, 
 M. A. Robb, J. R. Cheeseman, G. Scalmani, V. Barone, 
 G. A. Petersson, H. Nakatsuji, X. Li, M. Caricato, A. V. Marenich, 
 J. Bloino, B. G. Janesko, R. Gomperts, B. Mennucci, H. P. Hratchian, 
 J. V. Ortiz, A. F. Izmaylov, J. L. Sonnenberg, D. Williams-Young, 
 F. Ding, F. Lipparini, F. Egidi, J. Goings, B. Peng, A. Petrone, 
 T. Henderson, D. Ranasinghe, V. G. Zakrzewski, J. Gao, N. Rega, 
 G. Zheng, W. Liang, M. Hada, M. Ehara, K. Toyota, R. Fukuda, 
 J. Hasegawa, M. Ishida, T. Nakajima, Y. Honda, O. Kitao, H. Nakai, 
 T. Vreven, K. Throssell, J. A. Montgomery, Jr., J. E. Peralta, 
 F. Ogliaro, M. J. Bearpark, J. J. Heyd, E. N. Brothers, K. N. Kudin, 
 V. N. Staroverov, T. A. Keith, R. Kobayashi, J. Normand, 
 K. Raghavachari, A. P. Rendell, J. C. Burant, S. S. Iyengar, 
 J. Tomasi, M. Cossi, J. M. Millam, M. Klene, C. Adamo, R. Cammi, 
 J. W. Ochterski, R. L. Martin, K. Morokuma, O. Farkas, 
 J. B. Foresman, and D. J. Fox, Gaussian, Inc., Wallingford CT, 2019.
 
 ******************************************
 Gaussian 16:  ES64L-G16RevC.01  3-Jul-2019
                 7-Dec-2024 
 ******************************************
 %chk=geometry.chk
 %mem=1GB
 %nprocshared=1
 Will use up to    1 processors via shared memory.
 ----------------------------------------------------------------------
 #P B3LYP/STO-3G NoSymm #P TD=(singlets,nstates=1) IOp(6/8=3) IOp(9/40=
 5)
 ----------------------------------------------------------------------
 1/38=1,172=1/1;
 2/12=2,15=1,17=6,18=5,40=1/2;
 3/6=3,11=9,25=1,30=1,74=-5/1,2,3,8;
 4//1;
 5/5=2,38=5/2;
 8/6=1,10=1,108=1/1;
 9/40=5,41=1,42=1,48=1,70=2/14;
 6/7=2,8=3,9=2,10=2/1;
 99/5=1,9=1/99;
 Leave Link    1 at Sat Dec  7 16:55:20 2024, MaxMem=   134217728 cpu:               0.0 elap:               0.5
 (Enter /software/gaussian/g16-c01/avx2/g16/l101.exe)
 -------
 TitleMe
 -------
 Symbolic Z-matrix:
 Charge =  0 Multiplicity = 1
 C                     0.726    -1.17622  -0.00285 
 C                     2.12116  -1.17622  -0.00285 
 C                     2.8187    0.03153  -0.00285 
 C                     2.12104   1.24004  -0.00405 
 C                     0.72622   1.23996  -0.00453 
 C                     0.02862   0.03175  -0.00353 
 H                     0.17624  -2.12854  -0.0024 
 H                     2.67067  -2.12874  -0.00153 
 H                     2.67124   2.19218  -0.00411 
 H                     0.17609   2.19224  -0.00548 
 H                    -1.07099   0.03194  -0.00371 
 C                     4.3587    0.03164  -0.00196 
 H                     4.71594   0.04406  -1.01049 
 F                     4.80824   1.12604   0.64818 
 Cl                    4.945    -1.41543   0.81034 
 
 ITRead=  0  0  0  0  0  0  0  0  0  0  0  0  0  0  0
 MicOpt= -1 -1 -1 -1 -1 -1 -1 -1 -1 -1 -1 -1 -1 -1 -1
 NAtoms=     15 NQM=       15 NQMF=       0 NMMI=      0 NMMIF=      0
                NMic=       0 NMicF=      0.
                    Isotopes and Nuclear Properties:
 (Nuclear quadrupole moments (NQMom) in fm**2, nuclear magnetic moments (NMagM)
  in nuclear magnetons)

  Atom         1           2           3           4           5           6           7           8           9          10
 IAtWgt=          12          12          12          12          12          12           1           1           1           1
 AtmWgt=  12.0000000  12.0000000  12.0000000  12.0000000  12.0000000  12.0000000   1.0078250   1.0078250   1.0078250   1.0078250
 NucSpn=           0           0           0           0           0           0           1           1           1           1
 AtZEff=  -0.0000000  -0.0000000  -0.0000000  -0.0000000  -0.0000000  -0.0000000  -0.0000000  -0.0000000  -0.0000000  -0.0000000
 NQMom=    0.0000000   0.0000000   0.0000000   0.0000000   0.0000000   0.0000000   0.0000000   0.0000000   0.0000000   0.0000000
 NMagM=    0.0000000   0.0000000   0.0000000   0.0000000   0.0000000   0.0000000   2.7928460   2.7928460   2.7928460   2.7928460
 AtZNuc=   6.0000000   6.0000000   6.0000000   6.0000000   6.0000000   6.0000000   1.0000000   1.0000000   1.0000000   1.0000000

  Atom        11          12          13          14          15
 IAtWgt=           1          12           1          19          35
 AtmWgt=   1.0078250  12.0000000   1.0078250  18.9984032  34.9688527
 NucSpn=           1           0           1           1           3
 AtZEff=  -0.0000000  -0.0000000  -0.0000000  -0.0000000  -0.0000000
 NQMom=    0.0000000   0.0000000   0.0000000   0.0000000  -8.1650000
 NMagM=    2.7928460   0.0000000   2.7928460   2.6288670   0.8218740
 AtZNuc=   1.0000000   6.0000000   1.0000000   9.0000000  17.0000000
 Leave Link  101 at Sat Dec  7 16:55:20 2024, MaxMem=   134217728 cpu:               0.1 elap:               0.1
 (Enter /software/gaussian/g16-c01/avx2/g16/l202.exe)
                          Input orientation:                          
 ---------------------------------------------------------------------
 Center     Atomic      Atomic             Coordinates (Angstroms)
 Number     Number       Type             X           Y           Z
 ---------------------------------------------------------------------
      1          6           0        0.725998   -1.176224   -0.002850
      2          6           0        2.121158   -1.176224   -0.002850
      3          6           0        2.818696    0.031527   -0.002850
      4          6           0        2.121042    1.240036   -0.004049
      5          6           0        0.726217    1.239958   -0.004528
      6          6           0        0.028616    0.031752   -0.003532
      7          1           0        0.176239   -2.128541   -0.002400
      8          1           0        2.670666   -2.128737   -0.001535
      9          1           0        2.671242    2.192179   -0.004108
     10          1           0        0.176095    2.192239   -0.005481
     11          1           0       -1.070988    0.031935   -0.003712
     12          6           0        4.358695    0.031639   -0.001962
     13          1           0        4.715942    0.044055   -1.010486
     14          9           0        4.808241    1.126043    0.648184
     15         17           0        4.944999   -1.415433    0.810336
 ---------------------------------------------------------------------
                    Distance matrix (angstroms):
                    1          2          3          4          5
     1  C    0.000000
     2  C    1.395160   0.000000
     3  C    2.416205   1.394712   0.000000
     4  C    2.790065   2.416260   1.395427   0.000000
     5  C    2.416183   2.789946   2.416356   1.394825   0.000000
     6  C    1.394829   2.416183   2.790080   2.416236   1.395138
     7  H    1.099610   2.165553   3.412986   3.889675   3.413102
     8  H    2.165414   1.099655   2.165330   3.413316   3.889601
     9  H    3.889745   3.413024   2.165678   1.099680   2.165606
    10  H    3.413055   3.889707   3.413506   2.165528   1.099761
    11  H    2.165365   3.413128   3.889684   3.412999   2.165471
    12  C    3.828241   2.542737   1.540000   2.543093   3.828178
    13  H    4.292327   3.039296   2.148263   3.029323   4.284863
    14  F    4.731700   3.597873   2.362223   2.767569   4.135448
    15  Cl   4.303309   2.948317   2.697431   3.960995   5.051063
                    6          7          8          9         10
     6  C    0.000000
     7  H    2.165331   0.000000
     8  H    3.412938   2.494427   0.000000
     9  H    3.413344   4.989355   4.320917   0.000000
    10  H    2.165516   4.320781   4.989362   2.495147   0.000000
    11  H    1.099604   2.494641   4.320704   4.320988   2.494420
    12  C    4.330080   4.707369   2.741654   2.741430   4.707691
    13  H    4.794282   5.132769   3.149947   3.131778   5.122006
    14  F    4.946415   5.698335   3.947778   2.475660   4.798002
    15  Cl   5.189177   4.889800   2.518041   4.341447   6.035173
                   11         12         13         14         15
    11  H    0.000000
    12  C    5.429684   0.000000
    13  H    5.873867   1.070000   0.000000
    14  F    6.015594   1.350000   1.982524   0.000000
    15  Cl   6.240966   1.760000   2.344774   2.550314   0.000000
 Symmetry turned off by external request.
 Stoichiometry    C7H6ClF
 Framework group  C1[X(C7H6ClF)]
 Deg. of freedom    39
 Full point group                 C1      NOp   1
 Rotational constants (GHZ):           2.8697584           0.9467250           0.7295393
 Leave Link  202 at Sat Dec  7 16:55:20 2024, MaxMem=   134217728 cpu:               0.0 elap:               0.0
 (Enter /software/gaussian/g16-c01/avx2/g16/l301.exe)
 Standard basis: STO-3G (5D, 7F)
 Ernie: Thresh=  0.10000D-02 Tol=  0.10000D-05 Strict=F.
    55 basis functions,   165 primitive gaussians,    55 cartesian basis functions
    37 alpha electrons       37 beta electrons
       nuclear repulsion energy       489.6828464998 Hartrees.
 IExCor=  402 DFT=T Ex+Corr=B3LYP ExCW=0 ScaHFX=  0.200000
 ScaDFX=  0.800000  0.720000  1.000000  0.810000 ScalE2=  1.000000  1.000000
 IRadAn=      5 IRanWt=     -1 IRanGd=            0 ICorTp=0 IEmpDi=  4
 NAtoms=   15 NActive=   15 NUniq=   15 SFac= 1.00D+00 NAtFMM=   60 NAOKFM=F Big=F
 Integral buffers will be    131072 words long.
 Regular integral format.
 Two-electron integral symmetry is turned off.
 Leave Link  301 at Sat Dec  7 16:55:20 2024, MaxMem=   134217728 cpu:               0.0 elap:               0.1
 (Enter /software/gaussian/g16-c01/avx2/g16/l302.exe)
 NPDir=0 NMtPBC=     1 NCelOv=     1 NCel=       1 NClECP=     1 NCelD=      1
         NCelK=      1 NCelE2=     1 NClLst=     1 CellRange=     0.0.
 One-electron integrals computed using PRISM.
 NBasis=    55 RedAO= T EigKep=  1.72D-01  NBF=    55
 NBsUse=    55 1.00D-06 EigRej= -1.00D+00 NBFU=    55
 Precomputing XC quadrature grid using
 IXCGrd= 4 IRadAn=           5 IRanWt=          -1 IRanGd=           0 AccXCQ= 0.00D+00.
 Generated NRdTot=       0 NPtTot=           0 NUsed=           0 NTot=          32
 NSgBfM=    55    55    55    55    55 MxSgAt=    15 MxSgA2=    15.
 Leave Link  302 at Sat Dec  7 16:55:21 2024, MaxMem=   134217728 cpu:               0.2 elap:               0.6
 (Enter /software/gaussian/g16-c01/avx2/g16/l303.exe)
 DipDrv:  MaxL=1.
 Leave Link  303 at Sat Dec  7 16:55:21 2024, MaxMem=   134217728 cpu:               0.0 elap:               0.0
 (Enter /software/gaussian/g16-c01/avx2/g16/l308.exe)
 Leave Link  308 at Sat Dec  7 16:55:21 2024, MaxMem=   134217728 cpu:               0.0 elap:               0.0
 (Enter /software/gaussian/g16-c01/avx2/g16/l401.exe)
 ExpMin= 1.69D-01 ExpMax= 6.01D+02 ExpMxC= 6.01D+02 IAcc=3 IRadAn=         5 AccDes= 0.00D+00
 Harris functional with IExCor=  402 and IRadAn=       5 diagonalized for initial guess.
 HarFok:  IExCor=  402 AccDes= 0.00D+00 IRadAn=         5 IDoV= 1 UseB2=F ITyADJ=14
 ICtDFT=  3500011 ScaDFX=  1.000000  1.000000  1.000000  1.000000
 FoFCou: FMM=F IPFlag=           0 FMFlag=      100000 FMFlg1=           0
         NFxFlg=           0 DoJE=T BraDBF=F KetDBF=T FulRan=T
         wScrn=  0.000000 ICntrl=       500 IOpCl=  0 I1Cent=   200000004 NGrid=           0
         NMat0=    1 NMatS0=      1 NMatT0=    0 NMatD0=    1 NMtDS0=    0 NMtDT0=    0
 Symmetry not used in FoFCou.
 Harris En= -820.419776782441    
 JPrj=0 DoOrth=F DoCkMO=F.
 Leave Link  401 at Sat Dec  7 16:55:23 2024, MaxMem=   134217728 cpu:               1.1 elap:               2.3
 (Enter /software/gaussian/g16-c01/avx2/g16/l502.exe)
 Keep R1 ints in memory in canonical form, NReq=2065048.
 FoFCou: FMM=F IPFlag=           0 FMFlag=           0 FMFlg1=           0
         NFxFlg=           0 DoJE=F BraDBF=F KetDBF=F FulRan=T
         wScrn=  0.000000 ICntrl=       600 IOpCl=  0 I1Cent=           0 NGrid=           0
         NMat0=    1 NMatS0=   1540 NMatT0=    0 NMatD0=    1 NMtDS0=    0 NMtDT0=    0
 Symmetry not used in FoFCou.
 Two-electron integral symmetry not used.
 Closed shell SCF:
 Using DIIS extrapolation, IDIIS=  1040.
 NGot=   134217728 LenX=   133023527 LenY=   133020061
 Requested convergence on RMS density matrix=1.00D-08 within 128 cycles.
 Requested convergence on MAX density matrix=1.00D-06.
 Requested convergence on             energy=1.00D-06.
 No special actions if energy rises.
 Integral accuracy reduced to 1.0D-05 until final iterations.

 Cycle   1  Pass 0  IDiag  1:
 E= -820.551875223128    
 DIIS: error= 1.85D-02 at cycle   1 NSaved=   1.
 NSaved= 1 IEnMin= 1 EnMin= -820.551875223128     IErMin= 1 ErrMin= 1.85D-02
 ErrMax= 1.85D-02  0.00D+00 EMaxC= 1.00D-01 BMatC= 3.61D-02 BMatP= 3.61D-02
 IDIUse=3 WtCom= 8.15D-01 WtEn= 1.85D-01
 Coeff-Com:  0.100D+01
 Coeff-En:   0.100D+01
 Coeff:      0.100D+01
 Gap=     0.410 Goal=   None    Shift=    0.000
 GapD=    0.410 DampG=2.000 DampE=0.500 DampFc=1.0000 IDamp=-1.
 RMSDP=9.95D-03 MaxDP=1.06D-01              OVMax= 0.00D+00

 Cycle   2  Pass 0  IDiag  1:
 E= -820.565923831866     Delta-E=       -0.014048608738 Rises=F Damp=F
 DIIS: error= 1.64D-02 at cycle   2 NSaved=   2.
 NSaved= 2 IEnMin= 2 EnMin= -820.565923831866     IErMin= 2 ErrMin= 1.64D-02
 ErrMax= 1.64D-02  0.00D+00 EMaxC= 1.00D-01 BMatC= 2.85D-02 BMatP= 3.61D-02
 IDIUse=3 WtCom= 8.36D-01 WtEn= 1.64D-01
 Coeff-Com:  0.468D+00 0.532D+00
 Coeff-En:   0.406D+00 0.594D+00
 Coeff:      0.458D+00 0.542D+00
 Gap=     0.322 Goal=   None    Shift=    0.000
 RMSDP=5.00D-03 MaxDP=6.06D-02 DE=-1.40D-02 OVMax= 0.00D+00

 Cycle   3  Pass 0  IDiag  1:
 E= -820.600481413913     Delta-E=       -0.034557582047 Rises=F Damp=F
 DIIS: error= 4.58D-03 at cycle   3 NSaved=   3.
 NSaved= 3 IEnMin= 3 EnMin= -820.600481413913     IErMin= 3 ErrMin= 4.58D-03
 ErrMax= 4.58D-03  0.00D+00 EMaxC= 1.00D-01 BMatC= 1.88D-03 BMatP= 2.85D-02
 IDIUse=3 WtCom= 9.54D-01 WtEn= 4.58D-02
 Coeff-Com:  0.172D+00 0.264D+00 0.564D+00
 Coeff-En:   0.000D+00 0.000D+00 0.100D+01
 Coeff:      0.164D+00 0.252D+00 0.584D+00
 Gap=     0.277 Goal=   None    Shift=    0.000
 RMSDP=1.37D-03 MaxDP=2.59D-02 DE=-3.46D-02 OVMax= 0.00D+00

 Cycle   4  Pass 0  IDiag  1:
 E= -820.602676309224     Delta-E=       -0.002194895311 Rises=F Damp=F
 DIIS: error= 1.90D-03 at cycle   4 NSaved=   4.
 NSaved= 4 IEnMin= 4 EnMin= -820.602676309224     IErMin= 4 ErrMin= 1.90D-03
 ErrMax= 1.90D-03  0.00D+00 EMaxC= 1.00D-01 BMatC= 1.95D-04 BMatP= 1.88D-03
 IDIUse=3 WtCom= 9.81D-01 WtEn= 1.90D-02
 Coeff-Com:  0.275D-01 0.560D-01 0.281D+00 0.635D+00
 Coeff-En:   0.000D+00 0.000D+00 0.505D-01 0.949D+00
 Coeff:      0.270D-01 0.549D-01 0.277D+00 0.641D+00
 Gap=     0.277 Goal=   None    Shift=    0.000
 RMSDP=4.55D-04 MaxDP=8.89D-03 DE=-2.19D-03 OVMax= 0.00D+00

 Cycle   5  Pass 0  IDiag  1:
 E= -820.602916655529     Delta-E=       -0.000240346305 Rises=F Damp=F
 DIIS: error= 8.20D-04 at cycle   5 NSaved=   5.
 NSaved= 5 IEnMin= 5 EnMin= -820.602916655529     IErMin= 5 ErrMin= 8.20D-04
 ErrMax= 8.20D-04  0.00D+00 EMaxC= 1.00D-01 BMatC= 2.64D-05 BMatP= 1.95D-04
 IDIUse=3 WtCom= 9.92D-01 WtEn= 8.20D-03
 Coeff-Com: -0.291D-04 0.761D-02 0.105D+00 0.365D+00 0.522D+00
 Coeff-En:   0.000D+00 0.000D+00 0.000D+00 0.705D-01 0.929D+00
 Coeff:     -0.289D-04 0.755D-02 0.104D+00 0.363D+00 0.525D+00
 Gap=     0.277 Goal=   None    Shift=    0.000
 RMSDP=1.37D-04 MaxDP=1.98D-03 DE=-2.40D-04 OVMax= 0.00D+00

 Cycle   6  Pass 0  IDiag  1:
 E= -820.602953945284     Delta-E=       -0.000037289755 Rises=F Damp=F
 DIIS: error= 8.55D-05 at cycle   6 NSaved=   6.
 NSaved= 6 IEnMin= 6 EnMin= -820.602953945284     IErMin= 6 ErrMin= 8.55D-05
 ErrMax= 8.55D-05  0.00D+00 EMaxC= 1.00D-01 BMatC= 2.34D-07 BMatP= 2.64D-05
 IDIUse=1 WtCom= 1.00D+00 WtEn= 0.00D+00
 Coeff-Com: -0.396D-03 0.225D-02 0.369D-01 0.134D+00 0.211D+00 0.616D+00
 Coeff:     -0.396D-03 0.225D-02 0.369D-01 0.134D+00 0.211D+00 0.616D+00
 Gap=     0.277 Goal=   None    Shift=    0.000
 RMSDP=1.59D-05 MaxDP=3.45D-04 DE=-3.73D-05 OVMax= 0.00D+00

 Cycle   7  Pass 0  IDiag  1:
 E= -820.602954208176     Delta-E=       -0.000000262893 Rises=F Damp=F
 DIIS: error= 3.00D-05 at cycle   7 NSaved=   7.
 NSaved= 7 IEnMin= 7 EnMin= -820.602954208176     IErMin= 7 ErrMin= 3.00D-05
 ErrMax= 3.00D-05  0.00D+00 EMaxC= 1.00D-01 BMatC= 4.12D-08 BMatP= 2.34D-07
 IDIUse=1 WtCom= 1.00D+00 WtEn= 0.00D+00
 Coeff-Com: -0.192D-03-0.186D-03 0.183D-03 0.350D-02 0.162D-01 0.311D+00
 Coeff-Com:  0.670D+00
 Coeff:     -0.192D-03-0.186D-03 0.183D-03 0.350D-02 0.162D-01 0.311D+00
 Coeff:      0.670D+00
 Gap=     0.277 Goal=   None    Shift=    0.000
 RMSDP=4.79D-06 MaxDP=9.86D-05 DE=-2.63D-07 OVMax= 0.00D+00

 Initial convergence to 1.0D-05 achieved.  Increase integral accuracy.
 Cycle   8  Pass 1  IDiag  1:
 E= -820.602950036696     Delta-E=        0.000004171480 Rises=F Damp=F
 DIIS: error= 2.94D-06 at cycle   1 NSaved=   1.
 NSaved= 1 IEnMin= 1 EnMin= -820.602950036696     IErMin= 1 ErrMin= 2.94D-06
 ErrMax= 2.94D-06  0.00D+00 EMaxC= 1.00D-01 BMatC= 7.30D-10 BMatP= 7.30D-10
 IDIUse=1 WtCom= 1.00D+00 WtEn= 0.00D+00
 Coeff-Com:  0.100D+01
 Coeff:      0.100D+01
 Gap=     0.277 Goal=   None    Shift=    0.000
 RMSDP=4.79D-06 MaxDP=9.86D-05 DE= 4.17D-06 OVMax= 0.00D+00

 Cycle   9  Pass 1  IDiag  1:
 E= -820.602950036466     Delta-E=        0.000000000231 Rises=F Damp=F
 DIIS: error= 4.11D-06 at cycle   2 NSaved=   2.
 NSaved= 2 IEnMin= 1 EnMin= -820.602950036696     IErMin= 1 ErrMin= 2.94D-06
 ErrMax= 4.11D-06  0.00D+00 EMaxC= 1.00D-01 BMatC= 1.01D-09 BMatP= 7.30D-10
 IDIUse=1 WtCom= 1.00D+00 WtEn= 0.00D+00
 Coeff-Com:  0.542D+00 0.458D+00
 Coeff:      0.542D+00 0.458D+00
 Gap=     0.277 Goal=   None    Shift=    0.000
 RMSDP=8.25D-07 MaxDP=1.85D-05 DE= 2.31D-10 OVMax= 0.00D+00

 Cycle  10  Pass 1  IDiag  1:
 E= -820.602950037778     Delta-E=       -0.000000001312 Rises=F Damp=F
 DIIS: error= 6.98D-07 at cycle   3 NSaved=   3.
 NSaved= 3 IEnMin= 3 EnMin= -820.602950037778     IErMin= 3 ErrMin= 6.98D-07
 ErrMax= 6.98D-07  0.00D+00 EMaxC= 1.00D-01 BMatC= 1.50D-11 BMatP= 7.30D-10
 IDIUse=1 WtCom= 1.00D+00 WtEn= 0.00D+00
 Coeff-Com:  0.175D+00 0.179D+00 0.646D+00
 Coeff:      0.175D+00 0.179D+00 0.646D+00
 Gap=     0.277 Goal=   None    Shift=    0.000
 RMSDP=1.52D-07 MaxDP=2.33D-06 DE=-1.31D-09 OVMax= 0.00D+00

 Cycle  11  Pass 1  IDiag  1:
 E= -820.602950037797     Delta-E=       -0.000000000018 Rises=F Damp=F
 DIIS: error= 2.71D-07 at cycle   4 NSaved=   4.
 NSaved= 4 IEnMin= 4 EnMin= -820.602950037797     IErMin= 4 ErrMin= 2.71D-07
 ErrMax= 2.71D-07  0.00D+00 EMaxC= 1.00D-01 BMatC= 2.76D-12 BMatP= 1.50D-11
 IDIUse=1 WtCom= 1.00D+00 WtEn= 0.00D+00
 Coeff-Com:  0.291D-02 0.166D-01 0.315D+00 0.666D+00
 Coeff:      0.291D-02 0.166D-01 0.315D+00 0.666D+00
 Gap=     0.277 Goal=   None    Shift=    0.000
 RMSDP=5.22D-08 MaxDP=8.58D-07 DE=-1.82D-11 OVMax= 0.00D+00

 Cycle  12  Pass 1  IDiag  1:
 E= -820.602950037801     Delta-E=       -0.000000000005 Rises=F Damp=F
 DIIS: error= 7.07D-08 at cycle   5 NSaved=   5.
 NSaved= 5 IEnMin= 5 EnMin= -820.602950037801     IErMin= 5 ErrMin= 7.07D-08
 ErrMax= 7.07D-08  0.00D+00 EMaxC= 1.00D-01 BMatC= 3.76D-13 BMatP= 2.76D-12
 IDIUse=1 WtCom= 1.00D+00 WtEn= 0.00D+00
 Coeff-Com: -0.126D-01-0.530D-02 0.134D+00 0.385D+00 0.500D+00
 Coeff:     -0.126D-01-0.530D-02 0.134D+00 0.385D+00 0.500D+00
 Gap=     0.277 Goal=   None    Shift=    0.000
 RMSDP=1.78D-08 MaxDP=3.48D-07 DE=-4.55D-12 OVMax= 0.00D+00

 Cycle  13  Pass 1  IDiag  1:
 E= -820.602950037801     Delta-E=        0.000000000000 Rises=F Damp=F
 DIIS: error= 8.46D-09 at cycle   6 NSaved=   6.
 NSaved= 6 IEnMin= 5 EnMin= -820.602950037801     IErMin= 6 ErrMin= 8.46D-09
 ErrMax= 8.46D-09  0.00D+00 EMaxC= 1.00D-01 BMatC= 3.36D-15 BMatP= 3.76D-13
 IDIUse=1 WtCom= 1.00D+00 WtEn= 0.00D+00
 Coeff-Com: -0.317D-02-0.202D-02 0.262D-01 0.751D-01 0.127D+00 0.777D+00
 Coeff:     -0.317D-02-0.202D-02 0.262D-01 0.751D-01 0.127D+00 0.777D+00
 Gap=     0.277 Goal=   None    Shift=    0.000
 RMSDP=2.40D-09 MaxDP=6.58D-08 DE= 4.55D-13 OVMax= 0.00D+00

 SCF Done:  E(RB3LYP) =  -820.602950038     A.U. after   13 cycles
            NFock= 13  Conv=0.24D-08     -V/T= 2.0183
 KE= 8.058283389152D+02 PE=-2.907463603290D+03 EE= 7.913494678369D+02
 Leave Link  502 at Sat Dec  7 16:55:40 2024, MaxMem=   134217728 cpu:               8.0 elap:              16.6
 (Enter /software/gaussian/g16-c01/avx2/g16/l801.exe)
 DoSCS=F DFT=T ScalE2(SS,OS)=  1.000000  1.000000
 ExpMin= 1.69D-01 ExpMax= 6.01D+02 ExpMxC= 6.01D+02 IAcc=3 IRadAn=         5 AccDes= 0.00D+00
 HarFok:  IExCor=  205 AccDes= 0.00D+00 IRadAn=         5 IDoV=-2 UseB2=F ITyADJ=14
 ICtDFT= 12500011 ScaDFX=  1.000000  1.000000  1.000000  1.000000
 Largest valence mixing into a core orbital is  2.11D-04
 Largest core mixing into a valence orbital is  2.60D-04
 Range of M.O.s used for correlation:    14    55
 NBasis=    55 NAE=    37 NBE=    37 NFC=    13 NFV=     0
 NROrb=     42 NOA=    24 NOB=    24 NVA=    18 NVB=    18
 Leave Link  801 at Sat Dec  7 16:55:40 2024, MaxMem=   134217728 cpu:               0.3 elap:               0.7
 (Enter /software/gaussian/g16-c01/avx2/g16/l914.exe)
 RHF ground state
 Keep R1, R2, and R3 ints in memory in canonical form, NReq=4537975.
 FoFCou: FMM=F IPFlag=           0 FMFlag=           0 FMFlg1=           0
         NFxFlg=           0 DoJE=F BraDBF=F KetDBF=F FulRan=T
         wScrn=  0.000000 ICntrl=       600 IOpCl=  0 I1Cent=           0 NGrid=           0
         NMat0=    1 NMatS0=   1540 NMatT0=    0 NMatD0=    1 NMtDS0=    0 NMtDT0=    0
 Symmetry not used in FoFCou.
 Two-electron integral symmetry not used.
 MDV=   134217728 DFT=T DoStab=F Mixed=T DoRPA=T DoScal=F NonHer=T
 Making orbital integer symmetry assigments:
     4 initial guesses have been made.
 Convergence on wavefunction:    0.001000000000000
 Davidson Disk Diagonalization:  ConvIn= 1.00D-03 SkipCon=T Conv= 1.00D-03.
 Max sub-space:  2000 roots to seek:     4 dimension of matrix:          864
 Iteration     1 Dimension     4 NMult     0 NNew      4
 CISAX will form     4 AO SS matrices at one time.
 NMat=     4 NSing=     4 JSym2X= 0.
 New state      1 was old state      2
 Excitation Energies [eV] at current iteration:
 Root      1 :     6.357822397269379
 Root      2 :     8.558202611404697
 Root      3 :     9.837449466322997
 Root      4 :     9.847681422100630
 Iteration     2 Dimension     6 NMult     4 NNew      2
 CISAX will form     2 AO SS matrices at one time.
 NMat=     2 NSing=     2 JSym2X= 0.
 Root      1 not converged, maximum delta is    0.024688492723542
 Excitation Energies [eV] at current iteration:
 Root      1 :     6.333017852743811   Change is   -0.024804544525567
 Iteration     3 Dimension     8 NMult     6 NNew      2
 CISAX will form     2 AO SS matrices at one time.
 NMat=     2 NSing=     2 JSym2X= 0.
 Root      1 not converged, maximum delta is    0.009227779933652
 Excitation Energies [eV] at current iteration:
 Root      1 :     6.329015425370872   Change is   -0.004002427372940
 Iteration     4 Dimension    10 NMult     8 NNew      2
 CISAX will form     2 AO SS matrices at one time.
 NMat=     2 NSing=     2 JSym2X= 0.
 Root      1 not converged, maximum delta is    0.003228378857363
 Excitation Energies [eV] at current iteration:
 Root      1 :     6.328862759537246   Change is   -0.000152665833626
 Iteration     5 Dimension    12 NMult    10 NNew      2
 CISAX will form     2 AO SS matrices at one time.
 NMat=     2 NSing=     2 JSym2X= 0.
 Root      1 has converged.
 Excitation Energies [eV] at current iteration:
 Root      1 :     6.328842466952186   Change is   -0.000020292585060
 Convergence achieved on expansion vectors.
 ***********************************************************************
 Excited states from <AA,BB:AA,BB> singles matrix:
 ***********************************************************************
 
 1PDM for each excited state written to RWF  633
 Ground to excited state transition densities written to RWF  633
 Ground to excited state transition electric dipole moments (Au):
       state          X           Y           Z        Dip. S.      Osc.
         1         0.0092      0.0573      0.0006      0.0034      0.0005
 Ground to excited state transition velocity dipole moments (Au):
       state          X           Y           Z        Dip. S.      Osc.
         1        -0.0011     -0.0095     -0.0006      0.0001      0.0003
 Ground to excited state transition magnetic dipole moments (Au):
       state          X           Y           Z
         1         0.0152      0.0109     -0.0238
 Ground to excited state transition velocity quadrupole moments (Au):
       state          XX          YY          ZZ          XY          XZ          YZ
         1        -0.0055      0.0053     -0.0003     -0.0489      0.0005     -0.0051
 <0|del|b> * <b|rxdel|0> + <0|del|b> * <b|delr+rdel|0>
 Rotatory Strengths (R) in cgs (10**-40 erg-esu-cm/Gauss)
       state          XX          YY          ZZ    R(velocity)    E-M Angle
         1        -0.0792     -0.0420     -0.1985     -0.1066      111.33
 1/2[<0|r|b>*<b|rxdel|0> + (<0|rxdel|b>*<b|r|0>)*]
 Rotatory Strengths (R) in cgs (10**-40 erg-esu-cm/Gauss)
       state          XX          YY          ZZ     R(length)
         1        -0.0981     -0.4419      0.0107     -0.1765
  1/2[<0|del|b>*<b|r|0> + (<0|r|b>*<b|del|0>)*] (Au)
       state          X           Y           Z        Dip. S.   Osc.(frdel)
         1        -0.0000     -0.0005     -0.0000      0.0006      0.0004

 Excitation energies and oscillator strengths:
 
 Excited state symmetry could not be determined.
 Excited State   1:      Singlet-?Sym    6.3288 eV  195.90 nm  f=0.0005  <S**2>=0.000
      14 -> 39        -0.00003
      14 -> 40        -0.00007
      14 -> 41         0.00002
      14 -> 42        -0.00007
      14 -> 43        -0.00006
      14 -> 45         0.00003
      14 -> 46         0.00001
      14 -> 47         0.00004
      14 -> 48         0.00002
      14 -> 49         0.00006
      14 -> 51         0.00003
      14 -> 52         0.00002
      14 -> 53        -0.00009
      14 -> 54        -0.00005
      15 -> 38         0.00003
      15 -> 39        -0.00010
      15 -> 40         0.00003
      15 -> 41         0.00004
      15 -> 42        -0.00008
      15 -> 43        -0.00023
      15 -> 44         0.00011
      15 -> 45         0.00018
      15 -> 46         0.00010
      15 -> 47         0.00014
      15 -> 48         0.00013
      15 -> 49         0.00073
      15 -> 50         0.00002
      15 -> 51         0.00031
      15 -> 52         0.00003
      15 -> 53        -0.00063
      15 -> 54        -0.00020
      15 -> 55        -0.00004
      16 -> 38         0.00004
      16 -> 39         0.00002
      16 -> 40        -0.00025
      16 -> 41         0.00019
      16 -> 42        -0.00019
      16 -> 43        -0.00041
      16 -> 44         0.00016
      16 -> 45         0.00008
      16 -> 46        -0.00008
      16 -> 47         0.00008
      16 -> 48        -0.00019
      16 -> 49         0.00030
      16 -> 50        -0.00013
      16 -> 51         0.00017
      16 -> 52        -0.00015
      16 -> 53        -0.00022
      16 -> 54        -0.00019
      16 -> 55        -0.00003
      17 -> 38         0.00009
      17 -> 39        -0.00006
      17 -> 40        -0.00037
      17 -> 41         0.00017
      17 -> 42        -0.00009
      17 -> 43        -0.00071
      17 -> 44         0.00016
      17 -> 45        -0.00012
      17 -> 46         0.00051
      17 -> 47         0.00051
      17 -> 48         0.00104
      17 -> 49         0.00260
      17 -> 50         0.00040
      17 -> 51         0.00139
      17 -> 52         0.00039
      17 -> 53        -0.00078
      17 -> 54        -0.00030
      18 -> 38        -0.00001
      18 -> 39        -0.00005
      18 -> 40        -0.00022
      18 -> 41         0.00011
      18 -> 42        -0.00058
      18 -> 43         0.00011
      18 -> 44        -0.00011
      18 -> 45        -0.00013
      18 -> 46        -0.00066
      18 -> 47        -0.00009
      18 -> 48        -0.00230
      18 -> 49         0.00110
      18 -> 50        -0.00143
      18 -> 51         0.00037
      18 -> 52        -0.00038
      18 -> 53        -0.00029
      18 -> 54        -0.00015
      18 -> 55        -0.00026
      19 -> 38         0.00014
      19 -> 39        -0.00011
      19 -> 40        -0.00128
      19 -> 41         0.00042
      19 -> 42        -0.00061
      19 -> 43        -0.00066
      19 -> 44         0.00015
      19 -> 45         0.00179
      19 -> 46        -0.00002
      19 -> 47        -0.00015
      19 -> 48        -0.00013
      19 -> 49        -0.00157
      19 -> 50        -0.00019
      19 -> 51        -0.00116
      19 -> 52         0.00011
      19 -> 53        -0.00169
      19 -> 54        -0.00053
      19 -> 55         0.00004
      20 -> 38         0.00035
      20 -> 39         0.00002
      20 -> 40        -0.00020
      20 -> 41        -0.00011
      20 -> 42        -0.00089
      20 -> 43         0.00050
      20 -> 44        -0.00369
      20 -> 45        -0.00021
      20 -> 46         0.00034
      20 -> 47        -0.00038
      20 -> 49         0.00002
      20 -> 50        -0.00125
      20 -> 51        -0.00026
      20 -> 52         0.00411
      20 -> 53         0.00042
      20 -> 54         0.00019
      20 -> 55         0.00021
      21 -> 38         0.00029
      21 -> 39         0.00069
      21 -> 40        -0.00069
      21 -> 41         0.00028
      21 -> 42        -0.00074
      21 -> 43        -0.00108
      21 -> 44         0.00031
      21 -> 45         0.00391
      21 -> 46         0.00008
      21 -> 47        -0.00003
      21 -> 48         0.00009
      21 -> 49        -0.00046
      21 -> 50        -0.00001
      21 -> 51        -0.00088
      21 -> 52         0.00018
      21 -> 53        -0.00381
      21 -> 54        -0.00003
      21 -> 55        -0.00008
      22 -> 38         0.00005
      22 -> 39        -0.00186
      22 -> 40        -0.00010
      22 -> 41         0.00005
      22 -> 42        -0.00023
      22 -> 44        -0.00021
      22 -> 45         0.00091
      22 -> 47        -0.00004
      22 -> 48         0.00005
      22 -> 49         0.00021
      22 -> 50         0.00018
      22 -> 51         0.00050
      22 -> 52         0.00013
      22 -> 53        -0.00047
      22 -> 54        -0.00006
      22 -> 55        -0.00003
      23 -> 38         0.00050
      23 -> 39         0.00465
      23 -> 40        -0.00017
      23 -> 41        -0.00006
      23 -> 42        -0.00012
      23 -> 43         0.00010
      23 -> 45        -0.00063
      23 -> 46         0.00002
      23 -> 47         0.00007
      23 -> 49        -0.00026
      23 -> 50        -0.00007
      23 -> 51         0.00034
      23 -> 53         0.00079
      23 -> 54        -0.00185
      23 -> 55         0.00004
      24 -> 38        -0.00036
      24 -> 39        -0.00051
      24 -> 40        -0.00040
      24 -> 41         0.00044
      24 -> 42         0.00271
      24 -> 43        -0.00292
      24 -> 44        -0.00188
      24 -> 45         0.00032
      24 -> 46         0.00033
      24 -> 47         0.00012
      24 -> 48         0.00078
      24 -> 49        -0.00034
      24 -> 50         0.00025
      24 -> 51         0.00002
      24 -> 52         0.00142
      24 -> 54        -0.00211
      24 -> 55        -0.00006
      25 -> 38         0.00016
      25 -> 39        -0.00233
      25 -> 40        -0.00067
      25 -> 41         0.00002
      25 -> 42        -0.00207
      25 -> 43         0.00155
      25 -> 44         0.00139
      25 -> 45        -0.00019
      25 -> 46        -0.00004
      25 -> 47        -0.00014
      25 -> 48        -0.00045
      25 -> 49        -0.00070
      25 -> 50        -0.00031
      25 -> 51         0.00004
      25 -> 52        -0.00078
      25 -> 53         0.00073
      25 -> 54        -0.00300
      26 -> 38        -0.00031
      26 -> 39         0.00129
      26 -> 40        -0.00041
      26 -> 41         0.00022
      26 -> 42        -0.00004
      26 -> 43        -0.00031
      26 -> 44         0.00010
      26 -> 45        -0.00076
      26 -> 46        -0.00014
      26 -> 47         0.00009
      26 -> 48        -0.00003
      26 -> 49         0.00048
      26 -> 50        -0.00023
      26 -> 51         0.00054
      26 -> 52        -0.00007
      26 -> 53         0.00030
      26 -> 54         0.00162
      26 -> 55         0.00026
      27 -> 38         0.00018
      27 -> 39        -0.00037
      27 -> 40        -0.00016
      27 -> 41         0.00005
      27 -> 42         0.00049
      27 -> 43        -0.00052
      27 -> 44         0.00009
      27 -> 45         0.00019
      27 -> 46         0.00065
      27 -> 47         0.00029
      27 -> 48         0.00108
      27 -> 49        -0.00020
      27 -> 50         0.00247
      27 -> 51        -0.00007
      27 -> 52         0.00019
      27 -> 53        -0.00019
      27 -> 54        -0.00021
      27 -> 55        -0.00057
      28 -> 38        -0.00076
      28 -> 39        -0.00052
      28 -> 40         0.00050
      28 -> 41        -0.00018
      28 -> 42         0.00331
      28 -> 43        -0.00314
      28 -> 44        -0.00149
      28 -> 45         0.00036
      28 -> 46         0.00002
      28 -> 47         0.00015
      28 -> 48         0.00043
      28 -> 49         0.00007
      28 -> 50         0.00013
      28 -> 51         0.00006
      28 -> 52         0.00013
      28 -> 53        -0.00028
      28 -> 54        -0.00009
      28 -> 55         0.00011
      29 -> 38         0.00228
      29 -> 39         0.00451
      29 -> 40         0.00044
      29 -> 41        -0.00002
      29 -> 42        -0.00005
      29 -> 43        -0.00002
      29 -> 44        -0.00006
      29 -> 45        -0.00025
      29 -> 47        -0.00007
      29 -> 48        -0.00003
      29 -> 49        -0.00002
      29 -> 50        -0.00002
      29 -> 51         0.00003
      29 -> 52        -0.00004
      29 -> 53        -0.00002
      29 -> 54         0.00016
      29 -> 55         0.00003
      30 -> 38        -0.00011
      30 -> 39         0.00099
      30 -> 40         0.00015
      30 -> 41         0.00013
      30 -> 42         0.00020
      30 -> 43         0.00042
      30 -> 44        -0.00050
      30 -> 45        -0.00281
      30 -> 46         0.00004
      30 -> 47         0.00007
      30 -> 48        -0.00009
      30 -> 49         0.00012
      30 -> 50        -0.00019
      30 -> 51         0.00018
      30 -> 52         0.00010
      30 -> 53        -0.00011
      30 -> 54         0.00126
      30 -> 55         0.00016
      31 -> 38         0.00018
      31 -> 39         0.00026
      31 -> 40         0.00011
      31 -> 41        -0.00035
      31 -> 42        -0.00033
      31 -> 43         0.00007
      31 -> 44        -0.00174
      31 -> 45         0.00009
      31 -> 46        -0.00040
      31 -> 47        -0.00028
      31 -> 48        -0.00008
      31 -> 49        -0.00017
      31 -> 50        -0.00005
      31 -> 51         0.00005
      31 -> 52        -0.00246
      31 -> 53         0.00035
      31 -> 54         0.00034
      31 -> 55         0.00076
      32 -> 38        -0.00115
      32 -> 39        -0.02459
      32 -> 40        -0.00139
      32 -> 41         0.00044
      32 -> 42         0.00021
      32 -> 43        -0.00030
      32 -> 44         0.00009
      32 -> 45        -0.00048
      32 -> 46         0.00004
      32 -> 47         0.00017
      32 -> 48        -0.00005
      32 -> 49         0.00041
      32 -> 50        -0.00026
      32 -> 51         0.00007
      32 -> 52        -0.00031
      32 -> 53        -0.00030
      32 -> 54         0.00010
      32 -> 55         0.00014
      33 -> 38         0.01408
      33 -> 39        -0.01835
      33 -> 40         0.00204
      33 -> 41         0.00158
      33 -> 42         0.00012
      33 -> 43        -0.00091
      33 -> 44         0.00009
      33 -> 46        -0.00001
      33 -> 47        -0.00032
      33 -> 48        -0.00013
      33 -> 49         0.00024
      33 -> 50        -0.00005
      33 -> 51         0.00003
      33 -> 52        -0.00038
      33 -> 53        -0.00009
      33 -> 54         0.00011
      33 -> 55         0.00001
      34 -> 38         0.01326
      34 -> 39         0.02719
      34 -> 40         0.00210
      34 -> 41         0.00009
      34 -> 42         0.00019
      34 -> 43        -0.00025
      34 -> 44        -0.00007
      34 -> 45         0.00016
      34 -> 46        -0.00004
      34 -> 47        -0.00018
      34 -> 48        -0.00018
      34 -> 49         0.00007
      34 -> 50        -0.00011
      34 -> 51         0.00001
      34 -> 52        -0.00060
      34 -> 53         0.00010
      34 -> 54         0.00015
      34 -> 55         0.00007
      35 -> 38         0.00680
      35 -> 39        -0.03603
      35 -> 40        -0.00221
      35 -> 41         0.00066
      35 -> 42        -0.00002
      35 -> 43        -0.00038
      35 -> 44         0.00026
      35 -> 45        -0.00093
      35 -> 46         0.00016
      35 -> 47         0.00025
      35 -> 48         0.00006
      35 -> 49         0.00049
      35 -> 50        -0.00038
      35 -> 51         0.00014
      35 -> 52         0.00003
      35 -> 53        -0.00075
      35 -> 54        -0.00039
      35 -> 55         0.00016
      36 -> 38         0.48678
      36 -> 39         0.14387
      36 -> 40         0.01917
      36 -> 41         0.00462
      36 -> 42        -0.00262
      36 -> 43        -0.00245
      36 -> 44         0.00031
      36 -> 45        -0.00031
      36 -> 46         0.00041
      36 -> 47        -0.00190
      36 -> 48         0.00008
      36 -> 49         0.00006
      36 -> 50         0.00006
      36 -> 51         0.00005
      36 -> 52         0.00014
      36 -> 53        -0.00016
      36 -> 54        -0.00011
      37 -> 38        -0.15870
      37 -> 39         0.46187
      37 -> 40        -0.00278
      37 -> 41        -0.00342
      37 -> 42         0.00073
      37 -> 43         0.00036
      37 -> 44         0.00002
      37 -> 46        -0.00006
      37 -> 47         0.00060
      37 -> 48         0.00001
      37 -> 49         0.00022
      37 -> 50        -0.00011
      37 -> 51         0.00007
      37 -> 52        -0.00004
      37 -> 53        -0.00021
      37 -> 54        -0.00008
      37 -> 55         0.00003
      14 <- 38         0.00002
      14 <- 40        -0.00005
      14 <- 41         0.00002
      14 <- 42        -0.00005
      14 <- 43        -0.00005
      14 <- 45         0.00002
      14 <- 46         0.00001
      14 <- 47         0.00003
      14 <- 48         0.00001
      14 <- 49         0.00004
      14 <- 51         0.00002
      14 <- 52         0.00002
      14 <- 53        -0.00006
      14 <- 54        -0.00004
      15 <- 39        -0.00002
      15 <- 40         0.00002
      15 <- 41         0.00001
      15 <- 42        -0.00005
      15 <- 43        -0.00014
      15 <- 44         0.00007
      15 <- 45         0.00011
      15 <- 46         0.00007
      15 <- 47         0.00009
      15 <- 48         0.00010
      15 <- 49         0.00047
      15 <- 50         0.00002
      15 <- 51         0.00020
      15 <- 52         0.00002
      15 <- 53        -0.00043
      15 <- 54        -0.00014
      15 <- 55        -0.00003
      16 <- 39         0.00003
      16 <- 40        -0.00017
      16 <- 41         0.00010
      16 <- 42        -0.00013
      16 <- 43        -0.00025
      16 <- 44         0.00010
      16 <- 45         0.00005
      16 <- 46        -0.00005
      16 <- 47         0.00005
      16 <- 48        -0.00012
      16 <- 49         0.00015
      16 <- 50        -0.00008
      16 <- 51         0.00009
      16 <- 52        -0.00010
      16 <- 53        -0.00015
      16 <- 54        -0.00013
      16 <- 55        -0.00002
      17 <- 38         0.00004
      17 <- 39        -0.00003
      17 <- 40        -0.00015
      17 <- 41         0.00008
      17 <- 42        -0.00004
      17 <- 43        -0.00039
      17 <- 44         0.00008
      17 <- 45        -0.00006
      17 <- 46         0.00028
      17 <- 47         0.00029
      17 <- 48         0.00057
      17 <- 49         0.00147
      17 <- 50         0.00022
      17 <- 51         0.00081
      17 <- 52         0.00026
      17 <- 53        -0.00049
      17 <- 54        -0.00021
      18 <- 38         0.00001
      18 <- 39        -0.00002
      18 <- 40        -0.00011
      18 <- 41         0.00007
      18 <- 42        -0.00030
      18 <- 43         0.00009
      18 <- 44        -0.00004
      18 <- 45        -0.00006
      18 <- 46        -0.00028
      18 <- 47        -0.00004
      18 <- 48        -0.00125
      18 <- 49         0.00061
      18 <- 50        -0.00079
      18 <- 51         0.00021
      18 <- 52        -0.00025
      18 <- 53        -0.00019
      18 <- 54        -0.00010
      18 <- 55        -0.00019
      19 <- 38         0.00011
      19 <- 39        -0.00011
      19 <- 40        -0.00070
      19 <- 41         0.00024
      19 <- 42        -0.00038
      19 <- 43        -0.00043
      19 <- 44         0.00010
      19 <- 45         0.00107
      19 <- 47        -0.00008
      19 <- 48        -0.00006
      19 <- 49        -0.00089
      19 <- 50        -0.00013
      19 <- 51        -0.00071
      19 <- 52         0.00008
      19 <- 53        -0.00116
      19 <- 54        -0.00036
      19 <- 55         0.00003
      20 <- 38         0.00005
      20 <- 39         0.00007
      20 <- 40        -0.00013
      20 <- 42        -0.00048
      20 <- 43         0.00030
      20 <- 44        -0.00215
      20 <- 45        -0.00012
      20 <- 46         0.00021
      20 <- 47        -0.00022
      20 <- 48         0.00001
      20 <- 50        -0.00081
      20 <- 51        -0.00017
      20 <- 52         0.00271
      20 <- 53         0.00028
      20 <- 54         0.00013
      20 <- 55         0.00014
      21 <- 38         0.00010
      21 <- 39         0.00023
      21 <- 40        -0.00032
      21 <- 41         0.00018
      21 <- 42        -0.00039
      21 <- 43        -0.00059
      21 <- 44         0.00017
      21 <- 45         0.00228
      21 <- 46         0.00005
      21 <- 47        -0.00002
      21 <- 48         0.00006
      21 <- 49        -0.00033
      21 <- 51        -0.00059
      21 <- 52         0.00012
      21 <- 53        -0.00249
      21 <- 54        -0.00002
      21 <- 55        -0.00005
      22 <- 38        -0.00005
      22 <- 39        -0.00024
      22 <- 40        -0.00005
      22 <- 41         0.00005
      22 <- 42        -0.00013
      22 <- 44        -0.00012
      22 <- 45         0.00052
      22 <- 47        -0.00003
      22 <- 48         0.00003
      22 <- 49         0.00011
      22 <- 50         0.00012
      22 <- 51         0.00032
      22 <- 52         0.00007
      22 <- 53        -0.00028
      22 <- 54        -0.00004
      22 <- 55        -0.00002
      23 <- 38         0.00022
      23 <- 39         0.00084
      23 <- 40        -0.00013
      23 <- 41        -0.00008
      23 <- 42        -0.00006
      23 <- 43         0.00005
      23 <- 45        -0.00036
      23 <- 46         0.00002
      23 <- 47         0.00004
      23 <- 49        -0.00012
      23 <- 50        -0.00004
      23 <- 51         0.00023
      23 <- 52         0.00001
      23 <- 53         0.00051
      23 <- 54        -0.00119
      23 <- 55         0.00002
      24 <- 38        -0.00001
      24 <- 39        -0.00016
      24 <- 40        -0.00014
      24 <- 41         0.00007
      24 <- 42         0.00130
      24 <- 43        -0.00148
      24 <- 44        -0.00099
      24 <- 45         0.00018
      24 <- 46         0.00017
      24 <- 47         0.00004
      24 <- 48         0.00042
      24 <- 49        -0.00018
      24 <- 50         0.00013
      24 <- 51         0.00001
      24 <- 52         0.00087
      24 <- 53        -0.00002
      24 <- 54        -0.00136
      24 <- 55        -0.00004
      25 <- 38        -0.00005
      25 <- 39        -0.00039
      25 <- 40        -0.00025
      25 <- 41         0.00007
      25 <- 42        -0.00098
      25 <- 43         0.00081
      25 <- 44         0.00073
      25 <- 45        -0.00009
      25 <- 46        -0.00003
      25 <- 47        -0.00005
      25 <- 48        -0.00025
      25 <- 49        -0.00038
      25 <- 50        -0.00019
      25 <- 51         0.00004
      25 <- 52        -0.00048
      25 <- 53         0.00043
      25 <- 54        -0.00194
      26 <- 38         0.00001
      26 <- 40        -0.00016
      26 <- 41         0.00009
      26 <- 42        -0.00003
      26 <- 43        -0.00017
      26 <- 44         0.00006
      26 <- 45        -0.00041
      26 <- 46        -0.00008
      26 <- 47         0.00007
      26 <- 49         0.00042
      26 <- 50        -0.00014
      26 <- 51         0.00041
      26 <- 52        -0.00004
      26 <- 53         0.00016
      26 <- 54         0.00101
      26 <- 55         0.00018
      27 <- 38         0.00002
      27 <- 39        -0.00004
      27 <- 40        -0.00010
      27 <- 42         0.00027
      27 <- 43        -0.00025
      27 <- 44         0.00006
      27 <- 45         0.00011
      27 <- 46         0.00043
      27 <- 47         0.00018
      27 <- 48         0.00072
      27 <- 49        -0.00012
      27 <- 50         0.00155
      27 <- 51        -0.00004
      27 <- 52         0.00012
      27 <- 53        -0.00012
      27 <- 54        -0.00013
      27 <- 55        -0.00038
      28 <- 38        -0.00002
      28 <- 39        -0.00019
      28 <- 40         0.00024
      28 <- 41        -0.00006
      28 <- 42         0.00157
      28 <- 43        -0.00154
      28 <- 44        -0.00074
      28 <- 45         0.00019
      28 <- 47         0.00008
      28 <- 48         0.00023
      28 <- 49         0.00003
      28 <- 50         0.00005
      28 <- 51         0.00003
      28 <- 52         0.00008
      28 <- 53        -0.00018
      28 <- 54        -0.00006
      28 <- 55         0.00007
      29 <- 38         0.00059
      29 <- 39         0.00129
      29 <- 40         0.00033
      29 <- 41        -0.00005
      29 <- 42         0.00002
      29 <- 43         0.00001
      29 <- 44        -0.00006
      29 <- 45        -0.00017
      29 <- 46         0.00003
      29 <- 47        -0.00006
      29 <- 49        -0.00004
      29 <- 50         0.00003
      29 <- 51        -0.00001
      29 <- 52         0.00004
      29 <- 53         0.00006
      29 <- 54         0.00015
      30 <- 38        -0.00007
      30 <- 39        -0.00011
      30 <- 40        -0.00002
      30 <- 41        -0.00005
      30 <- 42         0.00011
      30 <- 43         0.00022
      30 <- 44        -0.00023
      30 <- 45        -0.00134
      30 <- 46         0.00001
      30 <- 47         0.00005
      30 <- 48        -0.00005
      30 <- 49         0.00006
      30 <- 50        -0.00011
      30 <- 51         0.00010
      30 <- 52         0.00004
      30 <- 53        -0.00006
      30 <- 54         0.00078
      30 <- 55         0.00010
      31 <- 38        -0.00002
      31 <- 39         0.00003
      31 <- 40         0.00006
      31 <- 42        -0.00012
      31 <- 43         0.00005
      31 <- 44        -0.00082
      31 <- 45         0.00005
      31 <- 46        -0.00020
      31 <- 47        -0.00013
      31 <- 48        -0.00004
      31 <- 49        -0.00009
      31 <- 50        -0.00003
      31 <- 51         0.00003
      31 <- 52        -0.00137
      31 <- 53         0.00019
      31 <- 54         0.00022
      31 <- 55         0.00047
      32 <- 38        -0.00002
      32 <- 39        -0.00162
      32 <- 40        -0.00018
      32 <- 41         0.00012
      32 <- 42         0.00006
      32 <- 43        -0.00015
      32 <- 44         0.00005
      32 <- 45        -0.00020
      32 <- 46         0.00002
      32 <- 47         0.00006
      32 <- 48        -0.00003
      32 <- 49         0.00022
      32 <- 50        -0.00015
      32 <- 51         0.00006
      32 <- 52        -0.00017
      32 <- 53        -0.00019
      32 <- 54         0.00005
      32 <- 55         0.00009
      33 <- 38         0.00061
      33 <- 39        -0.00100
      33 <- 40        -0.00013
      33 <- 41         0.00029
      33 <- 42         0.00028
      33 <- 43        -0.00016
      33 <- 44         0.00004
      33 <- 45         0.00002
      33 <- 47        -0.00004
      33 <- 48        -0.00005
      33 <- 49         0.00012
      33 <- 50        -0.00003
      33 <- 51         0.00002
      33 <- 52        -0.00020
      33 <- 53        -0.00005
      33 <- 54         0.00007
      34 <- 38         0.00045
      34 <- 39         0.00155
      34 <- 40         0.00008
      34 <- 41         0.00004
      34 <- 42         0.00015
      34 <- 43         0.00002
      34 <- 44        -0.00005
      34 <- 45         0.00006
      34 <- 46        -0.00004
      34 <- 48        -0.00009
      34 <- 49         0.00002
      34 <- 50        -0.00006
      34 <- 52        -0.00034
      34 <- 53         0.00007
      34 <- 54         0.00011
      34 <- 55         0.00004
      35 <- 38        -0.00006
      35 <- 39        -0.00159
      35 <- 40        -0.00037
      35 <- 41         0.00021
      35 <- 42        -0.00009
      35 <- 43        -0.00022
      35 <- 44         0.00012
      35 <- 45        -0.00040
      35 <- 46         0.00008
      35 <- 47         0.00011
      35 <- 48         0.00003
      35 <- 49         0.00024
      35 <- 50        -0.00021
      35 <- 51         0.00009
      35 <- 52         0.00002
      35 <- 53        -0.00043
      35 <- 54        -0.00024
      35 <- 55         0.00010
      36 <- 38         0.00677
      36 <- 39         0.00450
      36 <- 40         0.00158
      36 <- 41         0.00118
      36 <- 42        -0.00009
      36 <- 43        -0.00015
      36 <- 44         0.00009
      36 <- 45        -0.00010
      36 <- 46         0.00016
      36 <- 47        -0.00022
      36 <- 48         0.00006
      36 <- 49         0.00002
      36 <- 50        -0.00003
      36 <- 51        -0.00003
      36 <- 52         0.00012
      36 <- 54         0.00002
      37 <- 38        -0.00118
      37 <- 39         0.01147
      37 <- 41        -0.00101
      37 <- 43        -0.00010
      37 <- 44         0.00003
      37 <- 45        -0.00010
      37 <- 46         0.00003
      37 <- 47        -0.00002
      37 <- 48         0.00002
      37 <- 49         0.00005
      37 <- 51        -0.00002
      37 <- 52        -0.00002
      37 <- 53        -0.00003
 This state for optimization and/or second-order correction.
 Total Energy, E(TD-HF/TD-DFT) =  -820.370369357    
 Copying the excited state density for this state as the 1-particle RhoCI density.
 SavETr:  write IOETrn=   770 NScale= 10 NData=  16 NLR=1 NState=    1 LETran=      28.
 Leave Link  914 at Sat Dec  7 16:56:08 2024, MaxMem=   134217728 cpu:              13.5 elap:              27.6
 (Enter /software/gaussian/g16-c01/avx2/g16/l601.exe)
 Copying SCF densities to generalized density rwf, IOpCl= 0 IROHF=0.

 **********************************************************************

            Population analysis using the SCF Density.

 **********************************************************************

 Alpha  occ. eigenvalues -- -100.44360 -24.42710 -10.15563 -10.03084 -10.02074
 Alpha  occ. eigenvalues --  -10.01843 -10.01742 -10.01686 -10.01622  -9.24383
 Alpha  occ. eigenvalues --   -7.02377  -7.00818  -7.00766  -1.15331  -0.83306
 Alpha  occ. eigenvalues --   -0.80040  -0.72003  -0.71155  -0.62519  -0.57340
 Alpha  occ. eigenvalues --   -0.55377  -0.49570  -0.45928  -0.42798  -0.42593
 Alpha  occ. eigenvalues --   -0.40234  -0.38948  -0.38528  -0.32679  -0.32067
 Alpha  occ. eigenvalues --   -0.30880  -0.25396  -0.25074  -0.23271  -0.21957
 Alpha  occ. eigenvalues --   -0.20702  -0.20424
 Alpha virt. eigenvalues --    0.07271   0.08020   0.16166   0.24057   0.30863
 Alpha virt. eigenvalues --    0.31944   0.36393   0.38665   0.42941   0.43786
 Alpha virt. eigenvalues --    0.45260   0.46627   0.56498   0.57819   0.59226
 Alpha virt. eigenvalues --    0.60352   0.75423   0.79970
     Density Matrix:
                           1         2         3         4         5
   1 1   C  1S          2.06678
   2        2S         -0.20156   0.81595
   3        2PX         0.00291  -0.01748   0.60790
   4        2PY         0.00459  -0.02869   0.01084   0.62144
   5        2PZ         0.00027  -0.00102  -0.00062   0.00018   0.78305
   6 2   C  1S          0.02535  -0.06602  -0.11575  -0.00139  -0.00068
   7        2S         -0.06600   0.08434   0.29085   0.01161   0.00233
   8        2PX         0.11597  -0.29106  -0.46847   0.00491   0.00194
   9        2PY        -0.00199   0.01297  -0.00121   0.01799  -0.00072
  10        2PZ         0.00017  -0.00082  -0.00124  -0.00002   0.50864
  11 3   C  1S         -0.00494   0.01513   0.02302   0.01071  -0.00060
  12        2S          0.01514  -0.03563  -0.08045  -0.04805   0.00247
  13        2PX        -0.01731   0.06841   0.06361   0.01356   0.00255
  14        2PY        -0.01293   0.03951   0.05482   0.03788  -0.00155
  15        2PZ         0.00018  -0.00113  -0.00037  -0.00014  -0.05639
  16 4   C  1S         -0.00461   0.01599   0.00548   0.01151   0.00046
  17        2S          0.01598  -0.05441  -0.01899  -0.04295  -0.00166
  18        2PX        -0.00713   0.02742  -0.03063   0.04290  -0.00105
  19        2PY        -0.01117   0.04127   0.04180   0.01706   0.00120
  20        2PZ         0.00042  -0.00162  -0.00225  -0.00009  -0.33918
  21 5   C  1S         -0.00470   0.01444  -0.00072   0.02324  -0.00023
  22        2S          0.01445  -0.03429  -0.00752  -0.08628   0.00096
  23        2PX        -0.00085  -0.00696   0.01377   0.02138   0.00083
  24        2PY        -0.02327   0.08636  -0.02060   0.09614  -0.00032
  25        2PZ        -0.00019   0.00090   0.00068   0.00009  -0.05389
  26 6   C  1S          0.02541  -0.06616   0.05699  -0.10099  -0.00010
  27        2S         -0.06617   0.08498  -0.13712   0.25767   0.00048
  28        2PX        -0.05895   0.15445  -0.10418   0.20523   0.00016
  29        2PY         0.09959  -0.24619   0.21613  -0.34693   0.00028
  30        2PZ        -0.00036   0.00135   0.00131   0.00043   0.50426
  31 7   H  1S         -0.11402   0.29261  -0.27324  -0.47549   0.00013
  32 8   H  1S          0.02676  -0.09897  -0.10661   0.05970   0.00079
  33 9   H  1S         -0.00264   0.00993   0.00478   0.00452  -0.00053
  34 10  H  1S         -0.01869   0.07133  -0.04527   0.08662  -0.00064
  35 11  H  1S          0.02753  -0.10201   0.10772  -0.06538  -0.00003
  36 12  C  1S          0.00308  -0.01093  -0.01589  -0.00063   0.00148
  37        2S         -0.01203   0.04017   0.06664   0.00316  -0.00665
  38        2PX         0.01553  -0.05965  -0.08264  -0.00179  -0.00484
  39        2PY         0.00261  -0.01213  -0.01039   0.00621   0.00743
  40        2PZ        -0.00130   0.00534   0.00725  -0.00105  -0.01504
  41 13  H  1S          0.00314  -0.01478  -0.01552   0.00157  -0.00615
  42 14  F  1S         -0.00023   0.00040   0.00097   0.00066  -0.00120
  43        2S          0.00106  -0.00157  -0.00505  -0.00371   0.00608
  44        2PX        -0.00869   0.04022   0.03983  -0.00169  -0.00737
  45        2PY        -0.00234   0.00825   0.01230   0.00103  -0.00556
  46        2PZ        -0.00096   0.00182   0.00325   0.00416   0.00995
  47 15  Cl 1S         -0.00024   0.00095   0.00094   0.00004  -0.00018
  48        2S          0.00077  -0.00297  -0.00300  -0.00014   0.00070
  49        2PX        -0.00138   0.00664   0.00553   0.00187  -0.00693
  50        2PY        -0.00087   0.00459   0.00459  -0.00103  -0.00384
  51        2PZ        -0.00078   0.00356   0.00329   0.00086   0.00370
  52        3S         -0.00257   0.00825   0.00865   0.00078   0.00092
  53        3PX         0.00496  -0.02147  -0.01819  -0.00660   0.02439
  54        3PY         0.00348  -0.01769  -0.01820   0.00417   0.01560
  55        3PZ         0.00282  -0.01215  -0.01142  -0.00330  -0.01404
                           6         7         8         9        10
   6 2   C  1S          2.06717
   7        2S         -0.20294   0.82186
   8        2PX        -0.00363   0.01970   0.61441
   9        2PY         0.00757  -0.04196  -0.02140   0.62306
  10        2PZ         0.00004   0.00014   0.00042   0.00001   0.78175
  11 3   C  1S          0.02619  -0.06903  -0.06035  -0.09895  -0.00045
  12        2S         -0.06917   0.09430   0.15044   0.24878   0.00240
  13        2PX         0.05463  -0.13455  -0.08756  -0.21429  -0.00043
  14        2PY         0.10006  -0.24434  -0.21475  -0.34604   0.00033
  15        2PZ        -0.00062   0.00261  -0.00010  -0.00150   0.50145
  16 4   C  1S         -0.00490   0.01528   0.00204   0.02290   0.00016
  17        2S          0.01543  -0.03863   0.00024  -0.08547  -0.00093
  18        2PX         0.00199   0.00099   0.01762  -0.01931   0.00024
  19        2PY        -0.02340   0.08666   0.02063   0.09020   0.00027
  20        2PZ        -0.00069   0.00254   0.00251  -0.00130  -0.07040
  21 5   C  1S         -0.00461   0.01596  -0.00721   0.01173  -0.00000
  22        2S          0.01599  -0.05435   0.02788  -0.04367   0.00020
  23        2PX         0.00559  -0.01958  -0.03080  -0.04446  -0.00028
  24        2PY        -0.01139   0.04231  -0.04319   0.01702  -0.00018
  25        2PZ         0.00062  -0.00234  -0.00116   0.00025  -0.34005
  26 6   C  1S         -0.00448   0.01345  -0.02129   0.01087  -0.00009
  27        2S          0.01352  -0.03019   0.07452  -0.04899   0.00045
  28        2PX         0.01917  -0.07557   0.07749  -0.01449   0.00028
  29        2PY        -0.01233   0.03679  -0.05673   0.03714  -0.00041
  30        2PZ         0.00040  -0.00161  -0.00145   0.00103  -0.04941
  31 7   H  1S          0.02809  -0.10481   0.10845   0.06010   0.00042
  32 8   H  1S         -0.11396   0.29458   0.27356  -0.47115  -0.00031
  33 9   H  1S         -0.01783   0.06681   0.04425   0.08786   0.00001
  34 10  H  1S         -0.00213   0.00758  -0.00350   0.00707  -0.00005
  35 11  H  1S         -0.01841   0.07011  -0.09904   0.00442  -0.00046
  36 12  C  1S         -0.00528   0.01768   0.02220   0.00963  -0.00445
  37        2S          0.01914  -0.05868  -0.09074  -0.03282   0.01026
  38        2PX        -0.02264   0.08159   0.08819   0.05801   0.01730
  39        2PY        -0.00972   0.04118   0.01910   0.00371   0.00635
  40        2PZ         0.00142  -0.00499  -0.00615  -0.00400  -0.02524
  41 13  H  1S         -0.00336   0.01589   0.00617   0.01606   0.08588
  42 14  F  1S          0.00054  -0.00041  -0.00294  -0.00233   0.00246
  43        2S         -0.00205  -0.00053   0.01356   0.01131  -0.01279
  44        2PX         0.01518  -0.06982  -0.03383  -0.06712   0.03807
  45        2PY         0.00605  -0.01904  -0.02054  -0.02492   0.04403
  46        2PZ         0.00525  -0.01862  -0.01993  -0.02463   0.01384
  47 15  Cl 1S          0.00087  -0.00308  -0.00197   0.00233  -0.00122
  48        2S         -0.00286   0.00983   0.00685  -0.00694   0.00405
  49        2PX         0.00603  -0.02674  -0.01131   0.01492  -0.00541
  50        2PY         0.00162  -0.00950  -0.00242   0.01849   0.01502
  51        2PZ         0.00259  -0.01118  -0.00527   0.00156  -0.00655
  52        3S          0.01032  -0.02927  -0.02838   0.02580  -0.02017
  53        3PX        -0.02303   0.09438   0.04970  -0.05497   0.02490
  54        3PY        -0.00651   0.03422   0.01083  -0.06628  -0.05587
  55        3PZ        -0.00941   0.03874   0.02116  -0.00428   0.02427
                          11        12        13        14        15
  11 3   C  1S          2.06738
  12        2S         -0.20866   0.85596
  13        2PX        -0.00140   0.03265   0.59211
  14        2PY         0.00058  -0.00182   0.00095   0.61914
  15        2PZ         0.00047  -0.00144  -0.00182   0.00028   0.80814
  16 4   C  1S          0.02600  -0.06864   0.05430  -0.09987   0.00024
  17        2S         -0.06872   0.09418  -0.13283   0.24471  -0.00110
  18        2PX        -0.05999   0.14924  -0.08691   0.21531  -0.00097
  19        2PY         0.10010  -0.25424   0.20388  -0.34741   0.00069
  20        2PZ        -0.00037   0.00143  -0.00128  -0.00046   0.50234
  21 5   C  1S         -0.00487   0.01492  -0.01734   0.01270  -0.00007
  22        2S          0.01483  -0.03484   0.06852  -0.03841   0.00029
  23        2PX         0.02271  -0.07949   0.06340  -0.05352   0.00046
  24        2PY        -0.01085   0.04885  -0.01280   0.03810  -0.00005
  25        2PZ         0.00000  -0.00005   0.00009   0.00101  -0.06781
  26 6   C  1S         -0.00461   0.01608  -0.01409   0.00006  -0.00003
  27        2S          0.01596  -0.05456   0.05320  -0.00026   0.00028
  28        2PX         0.01257  -0.04619   0.04428  -0.00012  -0.00010
  29        2PY         0.00023  -0.00106  -0.00130  -0.05871  -0.00056
  30        2PZ         0.00041  -0.00171  -0.00012   0.00026  -0.34033
  31 7   H  1S         -0.01853   0.07009  -0.05088  -0.08357  -0.00036
  32 8   H  1S          0.02629  -0.09862   0.01171   0.12841   0.00052
  33 9   H  1S          0.02737  -0.10356   0.00677  -0.13070   0.00112
  34 10  H  1S         -0.01880   0.07158  -0.04850   0.08371  -0.00019
  35 11  H  1S         -0.00136   0.00454  -0.01126   0.00024  -0.00008
  36 12  C  1S          0.01854  -0.04723  -0.09666   0.00023  -0.00775
  37        2S         -0.04998   0.06691   0.26872  -0.00550   0.02623
  38        2PX         0.09974  -0.27408  -0.48752   0.00103   0.02194
  39        2PY         0.00137  -0.00579  -0.02040   0.02512  -0.00469
  40        2PZ        -0.00620   0.02661   0.03254  -0.00101   0.05439
  41 13  H  1S          0.02527  -0.10746  -0.12346   0.00244   0.06863
  42 14  F  1S         -0.00184   0.00495   0.00692   0.00774   0.00838
  43        2S          0.00717  -0.01119  -0.02670  -0.03358  -0.04175
  44        2PX        -0.05023   0.23834   0.23907   0.00393   0.00384
  45        2PY        -0.00365   0.00430   0.02336   0.02519   0.05345
  46        2PZ         0.00062  -0.01052  -0.01574   0.02999  -0.00830
  47 15  Cl 1S          0.00091  -0.00308  -0.00337   0.00282  -0.00308
  48        2S         -0.00303   0.01022   0.01084  -0.00894   0.00944
  49        2PX         0.01079  -0.05063  -0.04749   0.00436  -0.00492
  50        2PY        -0.00332   0.01303   0.01846  -0.00898   0.01074
  51        2PZ         0.00151  -0.00627  -0.00693   0.00748   0.00018
  52        3S          0.01117  -0.02765  -0.04462   0.03932  -0.04748
  53        3PX        -0.04258   0.18671   0.18605  -0.02497   0.02565
  54        3PY         0.01229  -0.04403  -0.06775   0.03528  -0.04454
  55        3PZ        -0.00510   0.01786   0.02494  -0.02749   0.00139
                          16        17        18        19        20
  16 4   C  1S          2.06671
  17        2S         -0.20116   0.81453
  18        2PX        -0.00186   0.01206   0.61207
  19        2PY        -0.00596   0.03453   0.01635   0.61554
  20        2PZ         0.00047  -0.00179  -0.00094  -0.00013   0.79441
  21 5   C  1S          0.02557  -0.06699   0.11541   0.00165  -0.00004
  22        2S         -0.06681   0.08791  -0.28787  -0.01165   0.00017
  23        2PX        -0.11683   0.29604  -0.46557   0.00246  -0.00037
  24        2PY         0.00130  -0.01109  -0.00534   0.01807   0.00044
  25        2PZ        -0.00047   0.00169   0.00082  -0.00019   0.50724
  26 6   C  1S         -0.00459   0.01396  -0.02099  -0.01052  -0.00013
  27        2S          0.01397  -0.03222   0.07301   0.04736   0.00051
  28        2PX         0.01953  -0.07738   0.07705   0.01375   0.00046
  29        2PY         0.01257  -0.03813   0.05557   0.03524  -0.00048
  30        2PZ        -0.00016   0.00072  -0.00006  -0.00031  -0.05510
  31 7   H  1S         -0.00219   0.00766  -0.00329  -0.00629   0.00011
  32 8   H  1S         -0.01740   0.06526   0.04380  -0.08407   0.00166
  33 9   H  1S         -0.11334   0.28995   0.27445   0.47375  -0.00027
  34 10  H  1S          0.02814  -0.10498   0.10922  -0.05833   0.00032
  35 11  H  1S         -0.01879   0.07199  -0.09796  -0.00382  -0.00068
  36 12  C  1S         -0.00488   0.01629   0.02080  -0.01073  -0.00560
  37        2S          0.01852  -0.05506  -0.08888   0.04219   0.01544
  38        2PX        -0.02486   0.09061   0.09362  -0.05875   0.01827
  39        2PY         0.00599  -0.02961   0.00135   0.00111  -0.00652
  40        2PZ        -0.00068   0.00376  -0.00046   0.00723  -0.02245
  41 13  H  1S         -0.00187   0.00880   0.00350  -0.01520   0.08527
  42 14  F  1S         -0.00106   0.00285   0.00291   0.00275   0.00202
  43        2S          0.00407  -0.01005  -0.01255  -0.01195  -0.01121
  44        2PX        -0.01021   0.04453   0.02351   0.02301   0.02241
  45        2PY        -0.00002  -0.00751   0.00923  -0.03861   0.04731
  46        2PZ        -0.00797   0.03009   0.02211  -0.01236   0.01896
  47 15  Cl 1S         -0.00030   0.00068   0.00125  -0.00123  -0.00154
  48        2S          0.00098  -0.00233  -0.00381   0.00384   0.00473
  49        2PX        -0.00377   0.01686   0.00899  -0.01572  -0.01345
  50        2PY         0.00254  -0.00906  -0.00906   0.01202   0.01569
  51        2PZ        -0.00211   0.00788   0.00734  -0.00786  -0.00476
  52        3S         -0.00325   0.00365   0.01650  -0.01523  -0.02097
  53        3PX         0.01434  -0.06095  -0.03483   0.05851   0.04912
  54        3PY        -0.00922   0.03167   0.03444  -0.04512  -0.05863
  55        3PZ         0.00748  -0.02711  -0.02687   0.02875   0.01908
                          21        22        23        24        25
  21 5   C  1S          2.06668
  22        2S         -0.20116   0.81432
  23        2PX         0.00351  -0.02025   0.60458
  24        2PY        -0.00445   0.02786  -0.00966   0.62235
  25        2PZ         0.00025  -0.00104  -0.00065   0.00017   0.78636
  26 6   C  1S          0.02545  -0.06643   0.05672   0.10093  -0.00008
  27        2S         -0.06634   0.08606  -0.13585  -0.25709   0.00012
  28        2PX        -0.05910   0.15545  -0.10365  -0.20525   0.00006
  29        2PY        -0.09967   0.24695  -0.21591  -0.34698   0.00089
  30        2PZ         0.00008  -0.00033   0.00020   0.00076   0.50555
  31 7   H  1S         -0.01861   0.07111  -0.04608  -0.08667  -0.00002
  32 8   H  1S         -0.00282   0.01089   0.00563  -0.00462  -0.00034
  33 9   H  1S          0.02693  -0.09906  -0.10802  -0.06159   0.00039
  34 10  H  1S         -0.11401   0.29259  -0.27266   0.47584  -0.00015
  35 11  H  1S          0.02777  -0.10323   0.10661   0.06589   0.00016
  36 12  C  1S          0.00291  -0.01028  -0.01515   0.00110   0.00058
  37        2S         -0.01154   0.03779   0.06422  -0.00596  -0.00159
  38        2PX         0.01635  -0.06314  -0.08612   0.00154  -0.00138
  39        2PY        -0.00028   0.00411  -0.00507   0.00544  -0.00396
  40        2PZ        -0.00038   0.00139   0.00310  -0.00008  -0.01240
  41 13  H  1S          0.00257  -0.01198  -0.01321  -0.00107  -0.00926
  42 14  F  1S          0.00031  -0.00107  -0.00140   0.00012  -0.00030
  43        2S         -0.00131   0.00423   0.00602  -0.00076   0.00292
  44        2PX         0.00004   0.00068   0.00205   0.00704   0.01054
  45        2PY        -0.00076   0.00626   0.00452   0.00106  -0.01116
  46        2PZ         0.00318  -0.01303  -0.01560   0.00205  -0.00639
  47 15  Cl 1S          0.00013  -0.00040  -0.00058   0.00026   0.00059
  48        2S         -0.00043   0.00133   0.00179  -0.00077  -0.00185
  49        2PX         0.00204  -0.00928  -0.00885   0.00026   0.00493
  50        2PY        -0.00092   0.00327   0.00516  -0.00034   0.00013
  51        2PZ         0.00076  -0.00271  -0.00344   0.00096  -0.00266
  52        3S          0.00183  -0.00495  -0.00877   0.00425   0.00789
  53        3PX        -0.00793   0.03547   0.03463  -0.00138  -0.01859
  54        3PY         0.00339  -0.01172  -0.01963   0.00181   0.00012
  55        3PZ        -0.00280   0.00981   0.01297  -0.00394   0.00965
                          26        27        28        29        30
  26 6   C  1S          2.06684
  27        2S         -0.20182   0.81698
  28        2PX         0.00516  -0.03224   0.62755
  29        2PY         0.00023  -0.00100  -0.00075   0.60382
  30        2PZ         0.00017  -0.00069  -0.00025   0.00053   0.78171
  31 7   H  1S          0.02759  -0.10227  -0.00325   0.12623   0.00008
  32 8   H  1S         -0.01823   0.06966   0.05070  -0.08255  -0.00068
  33 9   H  1S         -0.01828   0.06940   0.05139   0.08353  -0.00026
  34 10  H  1S          0.02748  -0.10170  -0.00278  -0.12599   0.00030
  35 11  H  1S         -0.11370   0.29117  -0.54945   0.00050   0.00041
  36 12  C  1S          0.00031  -0.00103  -0.00066  -0.00043   0.00432
  37        2S         -0.00057   0.00158  -0.00056   0.00235  -0.01260
  38        2PX         0.00219  -0.00854  -0.00507   0.00061  -0.01421
  39        2PY        -0.00037   0.00123   0.00200  -0.00353   0.00208
  40        2PZ        -0.00016   0.00104  -0.00018   0.00144   0.00120
  41 13  H  1S          0.00099  -0.00446  -0.00273  -0.00047  -0.06150
  42 14  F  1S         -0.00019   0.00076   0.00049   0.00023  -0.00199
  43        2S          0.00089  -0.00353  -0.00230  -0.00095   0.01105
  44        2PX        -0.00315   0.01526   0.00739   0.00093  -0.02336
  45        2PY         0.00068  -0.00334  -0.00127  -0.00564  -0.03369
  46        2PZ        -0.00058   0.00240   0.00139  -0.00174  -0.01261
  47 15  Cl 1S          0.00012  -0.00052  -0.00027   0.00024   0.00110
  48        2S         -0.00037   0.00165   0.00086  -0.00077  -0.00334
  49        2PX         0.00110  -0.00540  -0.00221   0.00201   0.00815
  50        2PY         0.00036  -0.00160  -0.00088   0.00343  -0.01172
  51        2PZ         0.00027  -0.00130  -0.00042   0.00005   0.00428
  52        3S          0.00154  -0.00659  -0.00326   0.00282   0.01638
  53        3PX        -0.00425   0.02050   0.00853  -0.00772  -0.03069
  54        3PY        -0.00139   0.00612   0.00353  -0.01315   0.04459
  55        3PZ        -0.00101   0.00481   0.00150  -0.00017  -0.01677
                          31        32        33        34        35
  31 7   H  1S          0.58156
  32 8   H  1S         -0.07531   0.56995
  33 9   H  1S          0.01936  -0.04642   0.58176
  34 10  H  1S         -0.04417   0.01819  -0.07561   0.58196
  35 11  H  1S         -0.07483  -0.04296  -0.04330  -0.07473   0.58263
  36 12  C  1S          0.00638   0.01420   0.01190   0.00675  -0.00335
  37        2S         -0.02669  -0.05511  -0.04727  -0.02967   0.01599
  38        2PX         0.03816   0.06256   0.06376   0.03881  -0.01653
  39        2PY        -0.00113   0.02638  -0.01012   0.00628  -0.00314
  40        2PZ        -0.00261  -0.01090  -0.00588  -0.00300   0.00115
  41 13  H  1S          0.00838   0.01452   0.01247   0.00805  -0.00127
  42 14  F  1S         -0.00086  -0.00024  -0.00061   0.00007  -0.00035
  43        2S          0.00450  -0.00040   0.00044  -0.00039   0.00156
  44        2PX        -0.02700  -0.02671  -0.04207  -0.00936  -0.00179
  45        2PY        -0.00815  -0.01100   0.01362   0.00657   0.00330
  46        2PZ        -0.00568   0.00833  -0.00179   0.00766  -0.00265
  47 15  Cl 1S          0.00012   0.00014   0.00032   0.00043   0.00020
  48        2S         -0.00040   0.00084  -0.00105  -0.00132  -0.00069
  49        2PX         0.00242   0.01143   0.00574   0.00606   0.00178
  50        2PY         0.00233   0.00248  -0.00308  -0.00420   0.00196
  51        2PZ        -0.00079   0.00567   0.00063   0.00264   0.00041
  52        3S          0.00244  -0.02078   0.00309   0.00658   0.00223
  53        3PX        -0.01012  -0.02099  -0.02196  -0.02343  -0.00654
  54        3PY        -0.00886   0.00392   0.01057   0.01608  -0.00763
  55        3PZ         0.00274  -0.01306  -0.00155  -0.00998  -0.00145
                          36        37        38        39        40
  36 12  C  1S          2.06642
  37        2S         -0.23362   0.98938
  38        2PX         0.00747  -0.01916   0.69215
  39        2PY         0.00961  -0.02620  -0.00211   0.54885
  40        2PZ         0.01330  -0.00657  -0.04915  -0.01241   0.65180
  41 13  H  1S         -0.11005   0.24998   0.20927  -0.01314  -0.49203
  42 14  F  1S          0.00162   0.01698  -0.00206  -0.00973  -0.00568
  43        2S          0.02275  -0.20212  -0.03574  -0.05955  -0.03534
  44        2PX         0.03268  -0.09494   0.08085  -0.26059  -0.09515
  45        2PY         0.10731  -0.35972  -0.25637  -0.29725  -0.36253
  46        2PZ         0.04179  -0.13531  -0.09779  -0.38577  -0.01791
  47 15  Cl 1S         -0.00104  -0.00312   0.00274  -0.00597   0.00477
  48        2S          0.00387   0.01092  -0.00901   0.01957  -0.01511
  49        2PX        -0.01065   0.03972   0.00531  -0.06700   0.02910
  50        2PY         0.02783  -0.09907  -0.06778   0.12036  -0.09121
  51        2PZ        -0.01299   0.05081   0.02981  -0.09682   0.03214
  52        3S          0.02295  -0.21818  -0.02607   0.06519  -0.01889
  53        3PX         0.02976  -0.09094  -0.04511   0.19614  -0.07737
  54        3PY        -0.07898   0.22570   0.19740  -0.36064   0.26451
  55        3PZ         0.03419  -0.10968  -0.07871   0.28417  -0.12565
                          41        42        43        44        45
  41 13  H  1S          0.59141
  42 14  F  1S          0.00938   2.11746
  43        2S         -0.03761  -0.49811   2.15233
  44        2PX        -0.11400  -0.02369   0.12962   1.83193
  45        2PY         0.02813  -0.05816   0.31764  -0.22033   1.31147
  46        2PZ         0.29230  -0.03451   0.18777  -0.16360  -0.32939
  47 15  Cl 1S         -0.00477   0.00021  -0.00031  -0.00363   0.00901
  48        2S          0.01512  -0.00079   0.00156   0.01048  -0.02717
  49        2PX         0.00974  -0.00164   0.00938  -0.01026   0.00583
  50        2PY         0.02451  -0.00466   0.02279   0.02211  -0.09836
  51        2PZ        -0.06178  -0.00268   0.01553  -0.02946   0.00674
  52        3S         -0.06479  -0.00034   0.01623  -0.06181   0.12790
  53        3PX        -0.04059   0.00648  -0.03576   0.04215  -0.02189
  54        3PY        -0.09010   0.01530  -0.06641  -0.09133   0.37861
  55        3PZ         0.23857   0.01055  -0.05879   0.11360  -0.02530
                          46        47        48        49        50
  46        2PZ         1.71508
  47 15  Cl 1S         -0.00544   2.27814
  48        2S          0.01551  -0.81479   2.38994
  49        2PX        -0.02953  -0.00203   0.00550   2.10486
  50        2PY         0.03005   0.00508  -0.01395   0.01923   2.06362
  51        2PZ        -0.03541  -0.00288   0.00787  -0.01212   0.02744
  52        3S         -0.09521   0.14559  -0.50530  -0.03202   0.07947
  53        3PX         0.11468   0.00678  -0.01832  -0.45640  -0.07373
  54        3PY        -0.12542  -0.01724   0.04749  -0.07406  -0.29761
  55        3PZ         0.14030   0.00969  -0.02651   0.04651  -0.10505
                          51        52        53        54        55
  51        2PZ         2.09683
  52        3S         -0.04536   2.16071
  53        3PX         0.04659   0.09229   1.98981
  54        3PY        -0.10560  -0.23369   0.27291   1.40157
  55        3PZ        -0.42532   0.13257  -0.17233   0.38856   1.87350
          Condensed to atoms (all electrons):
               1          2          3          4          5          6
     1  C    4.795010   0.504984  -0.029046  -0.012127  -0.030054   0.504487
     2  C    0.504984   4.807441   0.505295  -0.029874  -0.012314  -0.029898
     3  C   -0.029046   0.505295   4.839078   0.504531  -0.029060  -0.012468
     4  C   -0.012127  -0.029874   0.504531   4.803344   0.505878  -0.029997
     5  C   -0.030054  -0.012314  -0.029060   0.505878   4.794379   0.505028
     6  C    0.504487  -0.029898  -0.012468  -0.029997   0.505028   4.796653
     7  H    0.389477  -0.025170   0.001437   0.000038   0.001450  -0.025227
     8  H   -0.024398   0.388756  -0.025225   0.001380   0.000043   0.001426
     9  H    0.000039   0.001432  -0.025918   0.387790  -0.024657   0.001435
    10  H    0.001450   0.000040   0.001426  -0.025176   0.389424  -0.025132
    11  H   -0.025165   0.001457   0.000046   0.001456  -0.025198   0.389284
    12  C    0.000875  -0.026389   0.357438  -0.025929   0.000859   0.000012
    13  H   -0.000023  -0.000161  -0.028395  -0.000342  -0.000018   0.000002
    14  F   -0.000001   0.000172  -0.018374  -0.001545   0.000001  -0.000000
    15  Cl   0.000046  -0.008743  -0.030746   0.000512  -0.000006  -0.000001
               7          8          9         10         11         12
     1  C    0.389477  -0.024398   0.000039   0.001450  -0.025165   0.000875
     2  C   -0.025170   0.388756   0.001432   0.000040   0.001457  -0.026389
     3  C    0.001437  -0.025225  -0.025918   0.001426   0.000046   0.357438
     4  C    0.000038   0.001380   0.387790  -0.025176   0.001456  -0.025929
     5  C    0.001450   0.000043  -0.024657   0.389424  -0.025198   0.000859
     6  C   -0.025227   0.001426   0.001435  -0.025132   0.389284   0.000012
     7  H    0.581558  -0.003769   0.000002  -0.000034  -0.003743  -0.000015
     8  H   -0.003769   0.569951  -0.000035   0.000002  -0.000033  -0.004315
     9  H    0.000002  -0.000035   0.581765  -0.003778  -0.000033  -0.003540
    10  H   -0.000034   0.000002  -0.003778   0.581959  -0.003739  -0.000015
    11  H   -0.003743  -0.000033  -0.000033  -0.003739   0.582633   0.000001
    12  C   -0.000015  -0.004315  -0.003540  -0.000015   0.000001   4.832558
    13  H    0.000001   0.000192   0.000172   0.000001  -0.000000   0.371283
    14  F    0.000000   0.000009   0.000980   0.000000   0.000000   0.235336
    15  Cl   0.000002   0.000517   0.000023   0.000000   0.000000   0.197423
              13         14         15
     1  C   -0.000023  -0.000001   0.000046
     2  C   -0.000161   0.000172  -0.008743
     3  C   -0.028395  -0.018374  -0.030746
     4  C   -0.000342  -0.001545   0.000512
     5  C   -0.000018   0.000001  -0.000006
     6  C    0.000002  -0.000000  -0.000001
     7  H    0.000001   0.000000   0.000002
     8  H    0.000192   0.000009   0.000517
     9  H    0.000172   0.000980   0.000023
    10  H    0.000001   0.000000   0.000000
    11  H   -0.000000   0.000000   0.000000
    12  C    0.371283   0.235336   0.197423
    13  H    0.591412  -0.018150  -0.029319
    14  F   -0.018150   8.891189  -0.019126
    15  Cl  -0.029319  -0.019126  17.033214
 Mulliken charges:
               1
     1  C   -0.075553
     2  C   -0.077027
     3  C   -0.010019
     4  C   -0.079939
     5  C   -0.075753
     6  C   -0.075605
     7  H    0.083993
     8  H    0.095499
     9  H    0.084323
    10  H    0.083572
    11  H    0.083034
    12  C    0.064419
    13  H    0.113344
    14  F   -0.070492
    15  Cl  -0.143796
 Sum of Mulliken charges =  -0.00000
 Mulliken charges with hydrogens summed into heavy atoms:
               1
     1  C    0.008440
     2  C    0.018472
     3  C   -0.010019
     4  C    0.004384
     5  C    0.007819
     6  C    0.007429
    12  C    0.177763
    14  F   -0.070492
    15  Cl  -0.143796
 Electronic spatial extent (au):  <R**2>=           3692.0920
 Charge=             -0.0000 electrons
 Dipole moment (field-independent basis, Debye):
    X=             -1.3113    Y=              1.0254    Z=             -1.3063  Tot=              2.1159
 Quadrupole moment (field-independent basis, Debye-Ang):
   XX=            -60.6194   YY=            -52.7390   ZZ=            -55.8858
   XY=              5.3199   XZ=             -6.5287   YZ=              0.8442
 Traceless Quadrupole moment (field-independent basis, Debye-Ang):
   XX=             -4.2047   YY=              3.6757   ZZ=              0.5290
   XY=              5.3199   XZ=             -6.5287   YZ=              0.8442
 Octapole moment (field-independent basis, Debye-Ang**2):
  XXX=           -487.5205  YYY=             34.4022  ZZZ=            -34.6460  XYY=           -152.8212
  XXY=             38.0676  XXZ=            -43.4406  XZZ=           -150.1042  YZZ=             11.4766
  YYZ=            -12.5649  XYZ=              3.9944
 Hexadecapole moment (field-independent basis, Debye-Ang**3):
 XXXX=          -3851.3295 YYYY=           -436.4912 ZZZZ=           -103.7172 XXXY=            312.2686
 XXXZ=           -324.9236 YYYX=            182.2140 YYYZ=             31.4821 ZZZX=           -171.8284
 ZZZY=             32.2843 XXYY=           -709.7920 XXZZ=           -622.5652 YYZZ=            -97.3307
 XXYZ=             29.4108 YYXZ=            -61.4290 ZZXY=             61.0590
 N-N= 4.896828464998D+02 E-N=-2.907463603388D+03  KE= 8.058283389152D+02
 Leave Link  601 at Sat Dec  7 16:56:08 2024, MaxMem=   134217728 cpu:               0.0 elap:               0.0
 (Enter /software/gaussian/g16-c01/avx2/g16/l9999.exe)
 Electronic transition elements 
                 1 
      1  -0.820370D+03
      2   0.915159D-02
      3   0.573297D-01
      4   0.636069D-03
      5  -0.113892D-02
      6  -0.946508D-02
      7  -0.642304D-03
      8   0.151606D-01
      9   0.109011D-01
     10  -0.238067D-01
     11  -0.549428D-02
     12   0.525765D-02
     13  -0.337638D-03
     14  -0.488986D-01
     15   0.460891D-03
     16  -0.505012D-02

 Test job not archived.
 1\1\GINC-BLUEHIVE\SP\RB3LYP TD-FC\STO-3G\C7H6Cl1F1\BWEIGHT\07-Dec-2024
 \0\\#P B3LYP/STO-3G NoSymm #P TD=(singlets,nstates=1) IOp(6/8=3) IOp(9
 /40=5)\\TitleMe\\0,1\C,0,0.72599764,-1.17622359,-0.00284968\C,0,2.1211
 5764,-1.17622359,-0.00284968\C,0,2.81869564,0.03152741,-0.00284968\C,0
 ,2.12104164,1.24003641,-0.00404868\C,0,0.72621664,1.23995841,-0.004527
 68\C,0,0.02861564,0.03175241,-0.00353168\H,0,0.17623864,-2.12854059,-0
 .00239968\H,0,2.67066564,-2.12873659,-0.00153468\H,0,2.67124164,2.1921
 7941,-0.00410768\H,0,0.17609464,2.19223941,-0.00548068\H,0,-1.07098836
 ,0.03193541,-0.00371168\C,0,4.35869538,0.03163944,-0.00196182\H,0,4.71
 594233,0.04405522,-1.01048573\F,0,4.80824061,1.12604337,0.64818366\Cl,
 0,4.94499941,-1.41543325,0.81033628\\Version=ES64L-G16RevC.01\HF=-820.
 60295\RMSD=2.395e-09\PG=C01 [X(C7H6Cl1F1)]\\@


 THE WORLD IS NOT A HAMBURGER - YOU CAN'T HAVE IT YOUR WAY.
 Job cpu time:       0 days  0 hours  0 minutes 23.6 seconds.
 Elapsed time:       0 days  0 hours  0 minutes 48.6 seconds.
 File lengths (MBytes):  RWF=   1312 Int=      0 D2E=      0 Chk=     32 Scr=     32
 Normal termination of Gaussian 16 at Sat Dec  7 16:56:08 2024.
